********************************************************************************
*                       GENERAL UTILITY LATTICE PROGRAM                        *
*                                 Julian Gale                                  *
*                       Curtin Institute for Computation                       *
*                    School of Molecular and Life Sciences                     *
*                    Curtin University, Western Australia                      *
********************************************************************************
* Version = 5.2.0 * Last modified =  17th December 2019                        *
********************************************************************************
*  single       - perform a single point run                                   *
*  property     - calculate properties for final geometry                      *
*  phonon       - calculate phonons for final geometry                         *
********************************************************************************
* ASE calculation                                                              *
********************************************************************************


  Job Started  at 09:34.48 31st July       2020                               

  Number of CPUs =     1


  Total number of configurations input =      1

********************************************************************************
*  Input for Configuration =   1                                               *
********************************************************************************

  Formula = C8                                                          

  Number of irreducible atoms/shells =       8


  Total number atoms/shells =       8

  Dimensionality = 3               :  Bulk   



  Cartesian lattice vectors (Angstroms) :

        3.533900    0.000000    0.000000
        0.000000    3.533900    0.000000
        0.000000    0.000000    3.533900

  Cell parameters (Angstroms/Degrees):

  a =       3.5339    alpha =  90.0000
  b =       3.5339    beta  =  90.0000
  c =       3.5339    gamma =  90.0000

  Initial cell volume =          44.132931 Angs**3

  Shrinking factors =      8     8     8

  Temperature of configuration =   10.0     K 

  Pressure of configuration =         0.000 GPa 

  Fractional coordinates of asymmetric unit :

--------------------------------------------------------------------------------
   No.  Atomic       x           y          z         Charge      Occupancy
        Label      (Frac)      (Frac)     (Frac)        (e)         (Frac)  
--------------------------------------------------------------------------------
      1 C     c    0.000000    0.000000    0.000000     0.00000    1.000000    
      2 C     c    0.000000    0.500000    0.500000     0.00000    1.000000    
      3 C     c    0.500000    0.500000    0.000000     0.00000    1.000000    
      4 C     c    0.500000    0.000000    0.500000     0.00000    1.000000    
      5 C     c    0.750000    0.250000    0.750000     0.00000    1.000000    
      6 C     c    0.250000    0.250000    0.250000     0.00000    1.000000    
      7 C     c    0.250000    0.750000    0.750000     0.00000    1.000000    
      8 C     c    0.750000    0.750000    0.250000     0.00000    1.000000    
--------------------------------------------------------------------------------


  Brillouin zone sampling points :

--------------------------------------------------------------------------------
  Point number          x          y          z            Weight
--------------------------------------------------------------------------------
        1           0.062500   0.062500   0.062500     0.00390625
        2           0.062500   0.062500   0.187500     0.00390625
        3           0.062500   0.062500   0.312500     0.00390625
        4           0.062500   0.062500   0.437500     0.00390625
        5           0.062500   0.062500   0.562500     0.00390625
        6           0.062500   0.062500   0.687500     0.00390625
        7           0.062500   0.062500   0.812500     0.00390625
        8           0.062500   0.062500   0.937500     0.00390625
        9           0.062500   0.187500   0.062500     0.00390625
       10           0.062500   0.187500   0.187500     0.00390625
       11           0.062500   0.187500   0.312500     0.00390625
       12           0.062500   0.187500   0.437500     0.00390625
       13           0.062500   0.187500   0.562500     0.00390625
       14           0.062500   0.187500   0.687500     0.00390625
       15           0.062500   0.187500   0.812500     0.00390625
       16           0.062500   0.187500   0.937500     0.00390625
       17           0.062500   0.312500   0.062500     0.00390625
       18           0.062500   0.312500   0.187500     0.00390625
       19           0.062500   0.312500   0.312500     0.00390625
       20           0.062500   0.312500   0.437500     0.00390625
       21           0.062500   0.312500   0.562500     0.00390625
       22           0.062500   0.312500   0.687500     0.00390625
       23           0.062500   0.312500   0.812500     0.00390625
       24           0.062500   0.312500   0.937500     0.00390625
       25           0.062500   0.437500   0.062500     0.00390625
       26           0.062500   0.437500   0.187500     0.00390625
       27           0.062500   0.437500   0.312500     0.00390625
       28           0.062500   0.437500   0.437500     0.00390625
       29           0.062500   0.437500   0.562500     0.00390625
       30           0.062500   0.437500   0.687500     0.00390625
       31           0.062500   0.437500   0.812500     0.00390625
       32           0.062500   0.437500   0.937500     0.00390625
       33           0.062500   0.562500   0.062500     0.00390625
       34           0.062500   0.562500   0.187500     0.00390625
       35           0.062500   0.562500   0.312500     0.00390625
       36           0.062500   0.562500   0.437500     0.00390625
       37           0.062500   0.562500   0.562500     0.00390625
       38           0.062500   0.562500   0.687500     0.00390625
       39           0.062500   0.562500   0.812500     0.00390625
       40           0.062500   0.562500   0.937500     0.00390625
       41           0.062500   0.687500   0.062500     0.00390625
       42           0.062500   0.687500   0.187500     0.00390625
       43           0.062500   0.687500   0.312500     0.00390625
       44           0.062500   0.687500   0.437500     0.00390625
       45           0.062500   0.687500   0.562500     0.00390625
       46           0.062500   0.687500   0.687500     0.00390625
       47           0.062500   0.687500   0.812500     0.00390625
       48           0.062500   0.687500   0.937500     0.00390625
       49           0.062500   0.812500   0.062500     0.00390625
       50           0.062500   0.812500   0.187500     0.00390625
       51           0.062500   0.812500   0.312500     0.00390625
       52           0.062500   0.812500   0.437500     0.00390625
       53           0.062500   0.812500   0.562500     0.00390625
       54           0.062500   0.812500   0.687500     0.00390625
       55           0.062500   0.812500   0.812500     0.00390625
       56           0.062500   0.812500   0.937500     0.00390625
       57           0.062500   0.937500   0.062500     0.00390625
       58           0.062500   0.937500   0.187500     0.00390625
       59           0.062500   0.937500   0.312500     0.00390625
       60           0.062500   0.937500   0.437500     0.00390625
       61           0.062500   0.937500   0.562500     0.00390625
       62           0.062500   0.937500   0.687500     0.00390625
       63           0.062500   0.937500   0.812500     0.00390625
       64           0.062500   0.937500   0.937500     0.00390625
       65           0.187500   0.062500   0.062500     0.00390625
       66           0.187500   0.062500   0.187500     0.00390625
       67           0.187500   0.062500   0.312500     0.00390625
       68           0.187500   0.062500   0.437500     0.00390625
       69           0.187500   0.062500   0.562500     0.00390625
       70           0.187500   0.062500   0.687500     0.00390625
       71           0.187500   0.062500   0.812500     0.00390625
       72           0.187500   0.062500   0.937500     0.00390625
       73           0.187500   0.187500   0.062500     0.00390625
       74           0.187500   0.187500   0.187500     0.00390625
       75           0.187500   0.187500   0.312500     0.00390625
       76           0.187500   0.187500   0.437500     0.00390625
       77           0.187500   0.187500   0.562500     0.00390625
       78           0.187500   0.187500   0.687500     0.00390625
       79           0.187500   0.187500   0.812500     0.00390625
       80           0.187500   0.187500   0.937500     0.00390625
       81           0.187500   0.312500   0.062500     0.00390625
       82           0.187500   0.312500   0.187500     0.00390625
       83           0.187500   0.312500   0.312500     0.00390625
       84           0.187500   0.312500   0.437500     0.00390625
       85           0.187500   0.312500   0.562500     0.00390625
       86           0.187500   0.312500   0.687500     0.00390625
       87           0.187500   0.312500   0.812500     0.00390625
       88           0.187500   0.312500   0.937500     0.00390625
       89           0.187500   0.437500   0.062500     0.00390625
       90           0.187500   0.437500   0.187500     0.00390625
       91           0.187500   0.437500   0.312500     0.00390625
       92           0.187500   0.437500   0.437500     0.00390625
       93           0.187500   0.437500   0.562500     0.00390625
       94           0.187500   0.437500   0.687500     0.00390625
       95           0.187500   0.437500   0.812500     0.00390625
       96           0.187500   0.437500   0.937500     0.00390625
       97           0.187500   0.562500   0.062500     0.00390625
       98           0.187500   0.562500   0.187500     0.00390625
       99           0.187500   0.562500   0.312500     0.00390625
      100           0.187500   0.562500   0.437500     0.00390625
      101           0.187500   0.562500   0.562500     0.00390625
      102           0.187500   0.562500   0.687500     0.00390625
      103           0.187500   0.562500   0.812500     0.00390625
      104           0.187500   0.562500   0.937500     0.00390625
      105           0.187500   0.687500   0.062500     0.00390625
      106           0.187500   0.687500   0.187500     0.00390625
      107           0.187500   0.687500   0.312500     0.00390625
      108           0.187500   0.687500   0.437500     0.00390625
      109           0.187500   0.687500   0.562500     0.00390625
      110           0.187500   0.687500   0.687500     0.00390625
      111           0.187500   0.687500   0.812500     0.00390625
      112           0.187500   0.687500   0.937500     0.00390625
      113           0.187500   0.812500   0.062500     0.00390625
      114           0.187500   0.812500   0.187500     0.00390625
      115           0.187500   0.812500   0.312500     0.00390625
      116           0.187500   0.812500   0.437500     0.00390625
      117           0.187500   0.812500   0.562500     0.00390625
      118           0.187500   0.812500   0.687500     0.00390625
      119           0.187500   0.812500   0.812500     0.00390625
      120           0.187500   0.812500   0.937500     0.00390625
      121           0.187500   0.937500   0.062500     0.00390625
      122           0.187500   0.937500   0.187500     0.00390625
      123           0.187500   0.937500   0.312500     0.00390625
      124           0.187500   0.937500   0.437500     0.00390625
      125           0.187500   0.937500   0.562500     0.00390625
      126           0.187500   0.937500   0.687500     0.00390625
      127           0.187500   0.937500   0.812500     0.00390625
      128           0.187500   0.937500   0.937500     0.00390625
      129           0.312500   0.062500   0.062500     0.00390625
      130           0.312500   0.062500   0.187500     0.00390625
      131           0.312500   0.062500   0.312500     0.00390625
      132           0.312500   0.062500   0.437500     0.00390625
      133           0.312500   0.062500   0.562500     0.00390625
      134           0.312500   0.062500   0.687500     0.00390625
      135           0.312500   0.062500   0.812500     0.00390625
      136           0.312500   0.062500   0.937500     0.00390625
      137           0.312500   0.187500   0.062500     0.00390625
      138           0.312500   0.187500   0.187500     0.00390625
      139           0.312500   0.187500   0.312500     0.00390625
      140           0.312500   0.187500   0.437500     0.00390625
      141           0.312500   0.187500   0.562500     0.00390625
      142           0.312500   0.187500   0.687500     0.00390625
      143           0.312500   0.187500   0.812500     0.00390625
      144           0.312500   0.187500   0.937500     0.00390625
      145           0.312500   0.312500   0.062500     0.00390625
      146           0.312500   0.312500   0.187500     0.00390625
      147           0.312500   0.312500   0.312500     0.00390625
      148           0.312500   0.312500   0.437500     0.00390625
      149           0.312500   0.312500   0.562500     0.00390625
      150           0.312500   0.312500   0.687500     0.00390625
      151           0.312500   0.312500   0.812500     0.00390625
      152           0.312500   0.312500   0.937500     0.00390625
      153           0.312500   0.437500   0.062500     0.00390625
      154           0.312500   0.437500   0.187500     0.00390625
      155           0.312500   0.437500   0.312500     0.00390625
      156           0.312500   0.437500   0.437500     0.00390625
      157           0.312500   0.437500   0.562500     0.00390625
      158           0.312500   0.437500   0.687500     0.00390625
      159           0.312500   0.437500   0.812500     0.00390625
      160           0.312500   0.437500   0.937500     0.00390625
      161           0.312500   0.562500   0.062500     0.00390625
      162           0.312500   0.562500   0.187500     0.00390625
      163           0.312500   0.562500   0.312500     0.00390625
      164           0.312500   0.562500   0.437500     0.00390625
      165           0.312500   0.562500   0.562500     0.00390625
      166           0.312500   0.562500   0.687500     0.00390625
      167           0.312500   0.562500   0.812500     0.00390625
      168           0.312500   0.562500   0.937500     0.00390625
      169           0.312500   0.687500   0.062500     0.00390625
      170           0.312500   0.687500   0.187500     0.00390625
      171           0.312500   0.687500   0.312500     0.00390625
      172           0.312500   0.687500   0.437500     0.00390625
      173           0.312500   0.687500   0.562500     0.00390625
      174           0.312500   0.687500   0.687500     0.00390625
      175           0.312500   0.687500   0.812500     0.00390625
      176           0.312500   0.687500   0.937500     0.00390625
      177           0.312500   0.812500   0.062500     0.00390625
      178           0.312500   0.812500   0.187500     0.00390625
      179           0.312500   0.812500   0.312500     0.00390625
      180           0.312500   0.812500   0.437500     0.00390625
      181           0.312500   0.812500   0.562500     0.00390625
      182           0.312500   0.812500   0.687500     0.00390625
      183           0.312500   0.812500   0.812500     0.00390625
      184           0.312500   0.812500   0.937500     0.00390625
      185           0.312500   0.937500   0.062500     0.00390625
      186           0.312500   0.937500   0.187500     0.00390625
      187           0.312500   0.937500   0.312500     0.00390625
      188           0.312500   0.937500   0.437500     0.00390625
      189           0.312500   0.937500   0.562500     0.00390625
      190           0.312500   0.937500   0.687500     0.00390625
      191           0.312500   0.937500   0.812500     0.00390625
      192           0.312500   0.937500   0.937500     0.00390625
      193           0.437500   0.062500   0.062500     0.00390625
      194           0.437500   0.062500   0.187500     0.00390625
      195           0.437500   0.062500   0.312500     0.00390625
      196           0.437500   0.062500   0.437500     0.00390625
      197           0.437500   0.062500   0.562500     0.00390625
      198           0.437500   0.062500   0.687500     0.00390625
      199           0.437500   0.062500   0.812500     0.00390625
      200           0.437500   0.062500   0.937500     0.00390625
      201           0.437500   0.187500   0.062500     0.00390625
      202           0.437500   0.187500   0.187500     0.00390625
      203           0.437500   0.187500   0.312500     0.00390625
      204           0.437500   0.187500   0.437500     0.00390625
      205           0.437500   0.187500   0.562500     0.00390625
      206           0.437500   0.187500   0.687500     0.00390625
      207           0.437500   0.187500   0.812500     0.00390625
      208           0.437500   0.187500   0.937500     0.00390625
      209           0.437500   0.312500   0.062500     0.00390625
      210           0.437500   0.312500   0.187500     0.00390625
      211           0.437500   0.312500   0.312500     0.00390625
      212           0.437500   0.312500   0.437500     0.00390625
      213           0.437500   0.312500   0.562500     0.00390625
      214           0.437500   0.312500   0.687500     0.00390625
      215           0.437500   0.312500   0.812500     0.00390625
      216           0.437500   0.312500   0.937500     0.00390625
      217           0.437500   0.437500   0.062500     0.00390625
      218           0.437500   0.437500   0.187500     0.00390625
      219           0.437500   0.437500   0.312500     0.00390625
      220           0.437500   0.437500   0.437500     0.00390625
      221           0.437500   0.437500   0.562500     0.00390625
      222           0.437500   0.437500   0.687500     0.00390625
      223           0.437500   0.437500   0.812500     0.00390625
      224           0.437500   0.437500   0.937500     0.00390625
      225           0.437500   0.562500   0.062500     0.00390625
      226           0.437500   0.562500   0.187500     0.00390625
      227           0.437500   0.562500   0.312500     0.00390625
      228           0.437500   0.562500   0.437500     0.00390625
      229           0.437500   0.562500   0.562500     0.00390625
      230           0.437500   0.562500   0.687500     0.00390625
      231           0.437500   0.562500   0.812500     0.00390625
      232           0.437500   0.562500   0.937500     0.00390625
      233           0.437500   0.687500   0.062500     0.00390625
      234           0.437500   0.687500   0.187500     0.00390625
      235           0.437500   0.687500   0.312500     0.00390625
      236           0.437500   0.687500   0.437500     0.00390625
      237           0.437500   0.687500   0.562500     0.00390625
      238           0.437500   0.687500   0.687500     0.00390625
      239           0.437500   0.687500   0.812500     0.00390625
      240           0.437500   0.687500   0.937500     0.00390625
      241           0.437500   0.812500   0.062500     0.00390625
      242           0.437500   0.812500   0.187500     0.00390625
      243           0.437500   0.812500   0.312500     0.00390625
      244           0.437500   0.812500   0.437500     0.00390625
      245           0.437500   0.812500   0.562500     0.00390625
      246           0.437500   0.812500   0.687500     0.00390625
      247           0.437500   0.812500   0.812500     0.00390625
      248           0.437500   0.812500   0.937500     0.00390625
      249           0.437500   0.937500   0.062500     0.00390625
      250           0.437500   0.937500   0.187500     0.00390625
      251           0.437500   0.937500   0.312500     0.00390625
      252           0.437500   0.937500   0.437500     0.00390625
      253           0.437500   0.937500   0.562500     0.00390625
      254           0.437500   0.937500   0.687500     0.00390625
      255           0.437500   0.937500   0.812500     0.00390625
      256           0.437500   0.937500   0.937500     0.00390625
--------------------------------------------------------------------------------


********************************************************************************
*  General input information                                                   *
********************************************************************************

  Species output for all configurations : 

--------------------------------------------------------------------------------
  Species    Type    Atomic    Atomic    Charge       Radii (Angs)     Library
                     Number     Mass       (e)     Cova   Ionic  VDW   Symbol
--------------------------------------------------------------------------------
    C        Core        6      12.01   0.000000   0.770  0.000  1.530          
--------------------------------------------------------------------------------


  Lattice summation method               =    Ewald          (3-D)
                                         =    Parry          (2-D)
                                         =    Saunders et al (1-D)
  Accuracy factor for lattice sums       =   12.000


  Analytic derivatives to be used

  Time limit = Infinity

  Maximum range for interatomic potentials =    100000.000000 Angstroms

  Brenner et al 2002 potential to be used with explicit splines for P


********************************************************************************
*  Output for configuration   1                                                *
********************************************************************************


  Components of energy : 

--------------------------------------------------------------------------------
  Interatomic potentials     =           0.00000000 eV    
  Brenner potentials         =         -58.91147875 eV    
  Monopole - monopole (real) =           0.00000000 eV    
  Monopole - monopole (recip)=           0.00000000 eV    
  Monopole - monopole (total)=           0.00000000 eV    
--------------------------------------------------------------------------------
  Total lattice energy       =         -58.91147875 eV    
--------------------------------------------------------------------------------
  Total lattice energy       =           -5684.0572 kJ/(mole unit cells)
--------------------------------------------------------------------------------


  Elastic Constant Matrix: (Units=GPa)

-------------------------------------------------------------------------------
  Indices      1         2         3         4         5         6    
-------------------------------------------------------------------------------
       1   1153.1772  155.3482  155.3482    0.0000    0.0000    0.0000
       2    155.3482 1153.1772  155.3482    0.0000    0.0000    0.0000
       3    155.3482  155.3482 1153.1772    0.0000    0.0000    0.0000
       4      0.0000    0.0000    0.0000  777.1349   -0.0000   -0.0000
       5      0.0000    0.0000    0.0000   -0.0000  777.1349   -0.0000
       6      0.0000    0.0000    0.0000   -0.0000   -0.0000  777.1349
-------------------------------------------------------------------------------


  Elastic Compliance Matrix: (Units=1/GPa)

-------------------------------------------------------------------------------
  Indices      1         2         3         4         5         6    
-------------------------------------------------------------------------------
       1    0.000896 -0.000106 -0.000106 -0.000000 -0.000000 -0.000000
       2   -0.000106  0.000896 -0.000106 -0.000000 -0.000000 -0.000000
       3   -0.000106 -0.000106  0.000896 -0.000000 -0.000000 -0.000000
       4   -0.000000 -0.000000 -0.000000  0.001287  0.000000  0.000000
       5   -0.000000 -0.000000 -0.000000  0.000000  0.001287  0.000000
       6   -0.000000 -0.000000 -0.000000  0.000000  0.000000  0.001287
-------------------------------------------------------------------------------

  Mechanical properties :

-------------------------------------------------------------------------------
  Convention :                    Reuss         Voigt         Hill
-------------------------------------------------------------------------------
  Bulk  Modulus (GPa)     =     487.95789     487.95789     487.95789
  Shear Modulus (GPa)     =     635.40181     665.84676     650.62428
-------------------------------------------------------------------------------
  Velocity S-wave (km/s)  =      13.25748      13.57138      13.41535
  Velocity P-wave (km/s)  =      19.21780      19.50775      19.36332
-------------------------------------------------------------------------------
  Compressibility (1/GPa) =    0.00204936
-------------------------------------------------------------------------------
  Stress axis :                     x             y             z
-------------------------------------------------------------------------------
  Youngs Moduli (GPa)     =    1116.29129    1116.29129    1116.29129
-------------------------------------------------------------------------------
  Poissons Ratio (x)      =                     0.11872       0.11872
  Poissons Ratio (y)      =       0.11872                     0.11872
  Poissons Ratio (z)      =       0.11872       0.11872
-------------------------------------------------------------------------------


  Piezoelectric Strain Matrix: (Units=C/m**2)

-------------------------------------------------------------------------------
  Indices      1         2         3         4         5         6    
-------------------------------------------------------------------------------
       x    -0.00000  -0.00000  -0.00000  -0.00000  -0.00000  -0.00000
       y    -0.00000  -0.00000  -0.00000  -0.00000  -0.00000  -0.00000
       z    -0.00000  -0.00000  -0.00000  -0.00000  -0.00000  -0.00000
-------------------------------------------------------------------------------


  Piezoelectric Stress Matrix: (Units=10**-11 C/N)

-------------------------------------------------------------------------------
  Indices      1         2         3         4         5         6    
-------------------------------------------------------------------------------
       x     0.00000   0.00000   0.00000   0.00000   0.00000   0.00000
       y     0.00000   0.00000   0.00000   0.00000   0.00000   0.00000
       z     0.00000   0.00000   0.00000   0.00000   0.00000   0.00000
-------------------------------------------------------------------------------


  Static dielectric constant tensor : 

-------------------------------------------------------------------------------
              x         y         z
-------------------------------------------------------------------------------
       x     1.00000   0.00000   0.00000
       y     0.00000   1.00000   0.00000
       z     0.00000   0.00000   1.00000
--------------------------------------------------------------------------------

  Static refractive indices : 

-------------------------------------------------------------------------------
    1 =    1.00000      2 =    1.00000      3 =    1.00000
-------------------------------------------------------------------------------


  Phonon Calculation : 

  Number of k points for this configuration =      256

--------------------------------------------------------------------------------
  K point      1 =   0.062500  0.062500  0.062500  Weight =    0.004
--------------------------------------------------------------------------------

  Frequencies (cm-1) [NB: Negative implies an imaginary mode]:

  130.27  130.27  209.81 1080.31 1080.31 1080.31 1094.84 1094.84 1094.84
 1270.71 1270.71 1270.71 1329.34 1329.34 1329.34 1345.01 1345.01 1345.01
 1408.70 1408.70 1408.70 1632.15 1632.15 1636.24


--------------------------------------------------------------------------------
  K point      2 =   0.062500  0.062500  0.187500  Weight =    0.004
--------------------------------------------------------------------------------

  Frequencies (cm-1) [NB: Negative implies an imaginary mode]:

  256.00  274.39  375.36  996.08 1006.62 1073.27 1073.27 1114.55 1114.55
 1176.21 1221.05 1221.05 1303.64 1303.64 1380.36 1380.36 1386.64 1392.49
 1432.17 1432.17 1476.27 1619.79 1620.15 1632.10


--------------------------------------------------------------------------------
  K point      3 =   0.062500  0.062500  0.312500  Weight =    0.004
--------------------------------------------------------------------------------

  Frequencies (cm-1) [NB: Negative implies an imaginary mode]:

  421.28  433.97  555.47  876.75  883.12 1046.48 1075.83 1075.83 1136.11
 1136.11 1173.45 1173.45 1268.40 1268.40 1412.94 1412.94 1452.80 1452.83
 1452.83 1457.18 1532.09 1596.08 1596.41 1621.35


--------------------------------------------------------------------------------
  K point      4 =   0.062500  0.062500  0.437500  Weight =    0.004
--------------------------------------------------------------------------------

  Frequencies (cm-1) [NB: Negative implies an imaginary mode]:

  585.62  590.80  731.63  739.70  740.98  896.84 1087.36 1087.36 1131.70
 1131.70 1160.50 1160.50 1241.50 1241.50 1430.76 1430.76 1463.85 1463.85
 1511.82 1514.83 1559.91 1561.48 1573.61 1602.58


--------------------------------------------------------------------------------
  K point      5 =   0.062500  0.062500  0.562500  Weight =    0.004
--------------------------------------------------------------------------------

  Frequencies (cm-1) [NB: Negative implies an imaginary mode]:

  585.62  590.80  731.63  739.70  740.98  896.84 1087.36 1087.36 1131.70
 1131.70 1160.50 1160.50 1241.50 1241.50 1430.76 1430.76 1463.85 1463.85
 1511.82 1514.83 1559.91 1561.48 1573.61 1602.58


--------------------------------------------------------------------------------
  K point      6 =   0.062500  0.062500  0.687500  Weight =    0.004
--------------------------------------------------------------------------------

  Frequencies (cm-1) [NB: Negative implies an imaginary mode]:

  421.28  433.97  555.47  876.75  883.12 1046.48 1075.83 1075.83 1136.11
 1136.11 1173.45 1173.45 1268.40 1268.40 1412.94 1412.94 1452.80 1452.83
 1452.83 1457.18 1532.09 1596.08 1596.41 1621.35


--------------------------------------------------------------------------------
  K point      7 =   0.062500  0.062500  0.812500  Weight =    0.004
--------------------------------------------------------------------------------

  Frequencies (cm-1) [NB: Negative implies an imaginary mode]:

  256.00  274.39  375.36  996.08 1006.62 1073.27 1073.27 1114.55 1114.55
 1176.21 1221.05 1221.05 1303.64 1303.64 1380.36 1380.36 1386.64 1392.49
 1432.17 1432.17 1476.27 1619.79 1620.15 1632.10


--------------------------------------------------------------------------------
  K point      8 =   0.062500  0.062500  0.937500  Weight =    0.004
--------------------------------------------------------------------------------

  Frequencies (cm-1) [NB: Negative implies an imaginary mode]:

  130.27  130.27  209.81 1080.31 1080.31 1080.31 1094.84 1094.84 1094.84
 1270.71 1270.71 1270.71 1329.34 1329.34 1329.34 1345.01 1345.01 1345.01
 1408.70 1408.70 1408.70 1632.15 1632.15 1636.24


--------------------------------------------------------------------------------
  K point      9 =   0.062500  0.187500  0.062500  Weight =    0.004
--------------------------------------------------------------------------------

  Frequencies (cm-1) [NB: Negative implies an imaginary mode]:

  256.00  274.39  375.36  996.08 1006.62 1073.27 1073.27 1114.55 1114.55
 1176.21 1221.05 1221.05 1303.64 1303.64 1380.36 1380.36 1386.64 1392.49
 1432.17 1432.17 1476.27 1619.79 1620.15 1632.10


--------------------------------------------------------------------------------
  K point     10 =   0.062500  0.187500  0.187500  Weight =    0.004
--------------------------------------------------------------------------------

  Frequencies (cm-1) [NB: Negative implies an imaginary mode]:

  303.46  361.90  502.19  993.25  993.25 1024.95 1024.95 1035.29 1147.46
 1151.88 1151.88 1189.13 1330.33 1346.92 1376.60 1376.60 1417.01 1417.01
 1464.98 1473.68 1473.68 1605.97 1609.32 1628.58


--------------------------------------------------------------------------------
  K point     11 =   0.062500  0.187500  0.312500  Weight =    0.004
--------------------------------------------------------------------------------

  Frequencies (cm-1) [NB: Negative implies an imaginary mode]:

  425.03  493.94  650.12  871.53  906.31  993.75 1007.54 1048.98 1052.73
 1131.02 1136.21 1179.19 1304.68 1356.43 1382.09 1444.24 1445.21 1469.29
 1470.14 1485.97 1520.68 1582.20 1588.29 1616.40


--------------------------------------------------------------------------------
  K point     12 =   0.062500  0.187500  0.437500  Weight =    0.004
--------------------------------------------------------------------------------

  Frequencies (cm-1) [NB: Negative implies an imaginary mode]:

  575.06  635.73  728.12  775.14  796.41  932.37  992.49  994.01 1074.76
 1103.51 1136.25 1161.93 1308.23 1331.30 1415.92 1440.33 1482.04 1491.46
 1502.62 1517.82 1548.15 1557.65 1561.92 1594.20


--------------------------------------------------------------------------------
  K point     13 =   0.062500  0.187500  0.562500  Weight =    0.004
--------------------------------------------------------------------------------

  Frequencies (cm-1) [NB: Negative implies an imaginary mode]:

  575.06  635.73  728.12  775.14  796.41  932.37  992.49  994.01 1074.76
 1103.51 1136.25 1161.93 1308.23 1331.30 1415.92 1440.33 1482.04 1491.46
 1502.62 1517.82 1548.15 1557.65 1561.92 1594.20


--------------------------------------------------------------------------------
  K point     14 =   0.062500  0.187500  0.687500  Weight =    0.004
--------------------------------------------------------------------------------

  Frequencies (cm-1) [NB: Negative implies an imaginary mode]:

  425.03  493.94  650.12  871.53  906.31  993.75 1007.54 1048.98 1052.73
 1131.02 1136.21 1179.19 1304.68 1356.43 1382.09 1444.24 1445.21 1469.29
 1470.14 1485.97 1520.68 1582.20 1588.29 1616.40


--------------------------------------------------------------------------------
  K point     15 =   0.062500  0.187500  0.812500  Weight =    0.004
--------------------------------------------------------------------------------

  Frequencies (cm-1) [NB: Negative implies an imaginary mode]:

  303.46  361.90  502.19  993.25  993.25 1024.95 1024.95 1035.29 1147.46
 1151.88 1151.88 1189.13 1330.33 1346.92 1376.60 1376.60 1417.01 1417.01
 1464.98 1473.68 1473.68 1605.97 1609.32 1628.58


--------------------------------------------------------------------------------
  K point     16 =   0.062500  0.187500  0.937500  Weight =    0.004
--------------------------------------------------------------------------------

  Frequencies (cm-1) [NB: Negative implies an imaginary mode]:

  256.00  274.39  375.36  996.08 1006.62 1073.27 1073.27 1114.55 1114.55
 1176.21 1221.05 1221.05 1303.64 1303.64 1380.36 1380.36 1386.64 1392.49
 1432.17 1432.17 1476.27 1619.79 1620.15 1632.10


--------------------------------------------------------------------------------
  K point     17 =   0.062500  0.312500  0.062500  Weight =    0.004
--------------------------------------------------------------------------------

  Frequencies (cm-1) [NB: Negative implies an imaginary mode]:

  421.28  433.97  555.47  876.75  883.12 1046.48 1075.83 1075.83 1136.11
 1136.11 1173.45 1173.45 1268.40 1268.40 1412.94 1412.94 1452.80 1452.83
 1452.83 1457.18 1532.09 1596.08 1596.41 1621.35


--------------------------------------------------------------------------------
  K point     18 =   0.062500  0.312500  0.187500  Weight =    0.004
--------------------------------------------------------------------------------

  Frequencies (cm-1) [NB: Negative implies an imaginary mode]:

  425.03  493.94  650.12  871.53  906.31  993.75 1007.54 1048.98 1052.73
 1131.02 1136.21 1179.19 1304.68 1356.43 1382.09 1444.24 1445.21 1469.29
 1470.14 1485.97 1520.68 1582.20 1588.29 1616.40


--------------------------------------------------------------------------------
  K point     19 =   0.062500  0.312500  0.312500  Weight =    0.004
--------------------------------------------------------------------------------

  Frequencies (cm-1) [NB: Negative implies an imaginary mode]:

  486.75  596.94  765.13  867.05  867.05  945.88  949.40  949.40 1067.07
 1067.07 1099.66 1167.02 1350.15 1383.75 1429.79 1429.79 1487.11 1487.11
 1498.67 1498.67 1506.33 1558.53 1572.58 1601.86


--------------------------------------------------------------------------------
  K point     20 =   0.062500  0.312500  0.437500  Weight =    0.004
--------------------------------------------------------------------------------

  Frequencies (cm-1) [NB: Negative implies an imaginary mode]:

  596.75  716.17  729.57  836.70  874.02  878.57  899.85  981.15 1003.10
 1055.57 1091.79 1128.29 1382.39 1408.19 1421.17 1463.38 1485.34 1505.00
 1512.21 1521.92 1526.80 1538.25 1549.95 1575.50


--------------------------------------------------------------------------------
  K point     21 =   0.062500  0.312500  0.562500  Weight =    0.004
--------------------------------------------------------------------------------

  Frequencies (cm-1) [NB: Negative implies an imaginary mode]:

  596.75  716.17  729.57  836.70  874.02  878.57  899.85  981.15 1003.10
 1055.57 1091.79 1128.29 1382.39 1408.19 1421.17 1463.38 1485.34 1505.00
 1512.21 1521.92 1526.80 1538.25 1549.95 1575.50


--------------------------------------------------------------------------------
  K point     22 =   0.062500  0.312500  0.687500  Weight =    0.004
--------------------------------------------------------------------------------

  Frequencies (cm-1) [NB: Negative implies an imaginary mode]:

  486.75  596.94  765.13  867.05  867.05  945.88  949.40  949.40 1067.07
 1067.07 1099.66 1167.02 1350.15 1383.75 1429.79 1429.79 1487.11 1487.11
 1498.67 1498.67 1506.33 1558.53 1572.58 1601.86


--------------------------------------------------------------------------------
  K point     23 =   0.062500  0.312500  0.812500  Weight =    0.004
--------------------------------------------------------------------------------

  Frequencies (cm-1) [NB: Negative implies an imaginary mode]:

  425.03  493.94  650.12  871.53  906.31  993.75 1007.54 1048.98 1052.73
 1131.02 1136.21 1179.19 1304.68 1356.43 1382.09 1444.24 1445.21 1469.29
 1470.14 1485.97 1520.68 1582.20 1588.29 1616.40


--------------------------------------------------------------------------------
  K point     24 =   0.062500  0.312500  0.937500  Weight =    0.004
--------------------------------------------------------------------------------

  Frequencies (cm-1) [NB: Negative implies an imaginary mode]:

  421.28  433.97  555.47  876.75  883.12 1046.48 1075.83 1075.83 1136.11
 1136.11 1173.45 1173.45 1268.40 1268.40 1412.94 1412.94 1452.80 1452.83
 1452.83 1457.18 1532.09 1596.08 1596.41 1621.35


--------------------------------------------------------------------------------
  K point     25 =   0.062500  0.437500  0.062500  Weight =    0.004
--------------------------------------------------------------------------------

  Frequencies (cm-1) [NB: Negative implies an imaginary mode]:

  585.62  590.80  731.63  739.70  740.98  896.84 1087.36 1087.36 1131.70
 1131.70 1160.50 1160.50 1241.50 1241.50 1430.76 1430.76 1463.85 1463.85
 1511.82 1514.83 1559.91 1561.48 1573.61 1602.58


--------------------------------------------------------------------------------
  K point     26 =   0.062500  0.437500  0.187500  Weight =    0.004
--------------------------------------------------------------------------------

  Frequencies (cm-1) [NB: Negative implies an imaginary mode]:

  575.06  635.73  728.12  775.14  796.41  932.37  992.49  994.01 1074.76
 1103.51 1136.25 1161.93 1308.23 1331.30 1415.92 1440.33 1482.04 1491.46
 1502.62 1517.82 1548.15 1557.65 1561.92 1594.20


--------------------------------------------------------------------------------
  K point     27 =   0.062500  0.437500  0.312500  Weight =    0.004
--------------------------------------------------------------------------------

  Frequencies (cm-1) [NB: Negative implies an imaginary mode]:

  596.75  716.17  729.57  836.70  874.02  878.57  899.85  981.15 1003.10
 1055.57 1091.79 1128.29 1382.39 1408.19 1421.17 1463.38 1485.34 1505.00
 1512.21 1521.92 1526.80 1538.25 1549.95 1575.50


--------------------------------------------------------------------------------
  K point     28 =   0.062500  0.437500  0.437500  Weight =    0.004
--------------------------------------------------------------------------------

  Frequencies (cm-1) [NB: Negative implies an imaginary mode]:

  661.64  759.10  759.10  813.34  818.11  912.81  912.81  959.50  989.91
 1031.83 1031.83 1081.48 1436.90 1450.27 1462.59 1462.59 1498.61 1499.60
 1499.60 1523.28 1526.09 1526.09 1534.91 1547.73


--------------------------------------------------------------------------------
  K point     29 =   0.062500  0.437500  0.562500  Weight =    0.004
--------------------------------------------------------------------------------

  Frequencies (cm-1) [NB: Negative implies an imaginary mode]:

  661.64  759.10  759.10  813.34  818.11  912.81  912.81  959.50  989.91
 1031.83 1031.83 1081.48 1436.90 1450.27 1462.59 1462.59 1498.61 1499.60
 1499.60 1523.28 1526.09 1526.09 1534.91 1547.73


--------------------------------------------------------------------------------
  K point     30 =   0.062500  0.437500  0.687500  Weight =    0.004
--------------------------------------------------------------------------------

  Frequencies (cm-1) [NB: Negative implies an imaginary mode]:

  596.75  716.17  729.57  836.70  874.02  878.57  899.85  981.15 1003.10
 1055.57 1091.79 1128.29 1382.39 1408.19 1421.17 1463.38 1485.34 1505.00
 1512.21 1521.92 1526.80 1538.25 1549.95 1575.50


--------------------------------------------------------------------------------
  K point     31 =   0.062500  0.437500  0.812500  Weight =    0.004
--------------------------------------------------------------------------------

  Frequencies (cm-1) [NB: Negative implies an imaginary mode]:

  575.06  635.73  728.12  775.14  796.41  932.37  992.49  994.01 1074.76
 1103.51 1136.25 1161.93 1308.23 1331.30 1415.92 1440.33 1482.04 1491.46
 1502.62 1517.82 1548.15 1557.65 1561.92 1594.20


--------------------------------------------------------------------------------
  K point     32 =   0.062500  0.437500  0.937500  Weight =    0.004
--------------------------------------------------------------------------------

  Frequencies (cm-1) [NB: Negative implies an imaginary mode]:

  585.62  590.80  731.63  739.70  740.98  896.84 1087.36 1087.36 1131.70
 1131.70 1160.50 1160.50 1241.50 1241.50 1430.76 1430.76 1463.85 1463.85
 1511.82 1514.83 1559.91 1561.48 1573.61 1602.58


--------------------------------------------------------------------------------
  K point     33 =   0.062500  0.562500  0.062500  Weight =    0.004
--------------------------------------------------------------------------------

  Frequencies (cm-1) [NB: Negative implies an imaginary mode]:

  585.62  590.80  731.63  739.70  740.98  896.84 1087.36 1087.36 1131.70
 1131.70 1160.50 1160.50 1241.50 1241.50 1430.76 1430.76 1463.85 1463.85
 1511.82 1514.83 1559.91 1561.48 1573.61 1602.58


--------------------------------------------------------------------------------
  K point     34 =   0.062500  0.562500  0.187500  Weight =    0.004
--------------------------------------------------------------------------------

  Frequencies (cm-1) [NB: Negative implies an imaginary mode]:

  575.06  635.73  728.12  775.14  796.41  932.37  992.49  994.01 1074.76
 1103.51 1136.25 1161.93 1308.23 1331.30 1415.92 1440.33 1482.04 1491.46
 1502.62 1517.82 1548.15 1557.65 1561.92 1594.20


--------------------------------------------------------------------------------
  K point     35 =   0.062500  0.562500  0.312500  Weight =    0.004
--------------------------------------------------------------------------------

  Frequencies (cm-1) [NB: Negative implies an imaginary mode]:

  596.75  716.17  729.57  836.70  874.02  878.57  899.85  981.15 1003.10
 1055.57 1091.79 1128.29 1382.39 1408.19 1421.17 1463.38 1485.34 1505.00
 1512.21 1521.92 1526.80 1538.25 1549.95 1575.50


--------------------------------------------------------------------------------
  K point     36 =   0.062500  0.562500  0.437500  Weight =    0.004
--------------------------------------------------------------------------------

  Frequencies (cm-1) [NB: Negative implies an imaginary mode]:

  661.64  759.10  759.10  813.34  818.11  912.81  912.81  959.50  989.91
 1031.83 1031.83 1081.48 1436.90 1450.27 1462.59 1462.59 1498.61 1499.60
 1499.60 1523.28 1526.09 1526.09 1534.91 1547.73


--------------------------------------------------------------------------------
  K point     37 =   0.062500  0.562500  0.562500  Weight =    0.004
--------------------------------------------------------------------------------

  Frequencies (cm-1) [NB: Negative implies an imaginary mode]:

  661.64  759.10  759.10  813.34  818.11  912.81  912.81  959.50  989.91
 1031.83 1031.83 1081.48 1436.90 1450.27 1462.59 1462.59 1498.61 1499.60
 1499.60 1523.28 1526.09 1526.09 1534.91 1547.73


--------------------------------------------------------------------------------
  K point     38 =   0.062500  0.562500  0.687500  Weight =    0.004
--------------------------------------------------------------------------------

  Frequencies (cm-1) [NB: Negative implies an imaginary mode]:

  596.75  716.17  729.57  836.70  874.02  878.57  899.85  981.15 1003.10
 1055.57 1091.79 1128.29 1382.39 1408.19 1421.17 1463.38 1485.34 1505.00
 1512.21 1521.92 1526.80 1538.25 1549.95 1575.50


--------------------------------------------------------------------------------
  K point     39 =   0.062500  0.562500  0.812500  Weight =    0.004
--------------------------------------------------------------------------------

  Frequencies (cm-1) [NB: Negative implies an imaginary mode]:

  575.06  635.73  728.12  775.14  796.41  932.37  992.49  994.01 1074.76
 1103.51 1136.25 1161.93 1308.23 1331.30 1415.92 1440.33 1482.04 1491.46
 1502.62 1517.82 1548.15 1557.65 1561.92 1594.20


--------------------------------------------------------------------------------
  K point     40 =   0.062500  0.562500  0.937500  Weight =    0.004
--------------------------------------------------------------------------------

  Frequencies (cm-1) [NB: Negative implies an imaginary mode]:

  585.62  590.80  731.63  739.70  740.98  896.84 1087.36 1087.36 1131.70
 1131.70 1160.50 1160.50 1241.50 1241.50 1430.76 1430.76 1463.85 1463.85
 1511.82 1514.83 1559.91 1561.48 1573.61 1602.58


--------------------------------------------------------------------------------
  K point     41 =   0.062500  0.687500  0.062500  Weight =    0.004
--------------------------------------------------------------------------------

  Frequencies (cm-1) [NB: Negative implies an imaginary mode]:

  421.28  433.97  555.47  876.75  883.12 1046.48 1075.83 1075.83 1136.11
 1136.11 1173.45 1173.45 1268.40 1268.40 1412.94 1412.94 1452.80 1452.83
 1452.83 1457.18 1532.09 1596.08 1596.41 1621.35


--------------------------------------------------------------------------------
  K point     42 =   0.062500  0.687500  0.187500  Weight =    0.004
--------------------------------------------------------------------------------

  Frequencies (cm-1) [NB: Negative implies an imaginary mode]:

  425.03  493.94  650.12  871.53  906.31  993.75 1007.54 1048.98 1052.73
 1131.02 1136.21 1179.19 1304.68 1356.43 1382.09 1444.24 1445.21 1469.29
 1470.14 1485.97 1520.68 1582.20 1588.29 1616.40


--------------------------------------------------------------------------------
  K point     43 =   0.062500  0.687500  0.312500  Weight =    0.004
--------------------------------------------------------------------------------

  Frequencies (cm-1) [NB: Negative implies an imaginary mode]:

  486.75  596.94  765.13  867.05  867.05  945.88  949.40  949.40 1067.07
 1067.07 1099.66 1167.02 1350.15 1383.75 1429.79 1429.79 1487.11 1487.11
 1498.67 1498.67 1506.33 1558.53 1572.58 1601.86


--------------------------------------------------------------------------------
  K point     44 =   0.062500  0.687500  0.437500  Weight =    0.004
--------------------------------------------------------------------------------

  Frequencies (cm-1) [NB: Negative implies an imaginary mode]:

  596.75  716.17  729.57  836.70  874.02  878.57  899.85  981.15 1003.10
 1055.57 1091.79 1128.29 1382.39 1408.19 1421.17 1463.38 1485.34 1505.00
 1512.21 1521.92 1526.80 1538.25 1549.95 1575.50


--------------------------------------------------------------------------------
  K point     45 =   0.062500  0.687500  0.562500  Weight =    0.004
--------------------------------------------------------------------------------

  Frequencies (cm-1) [NB: Negative implies an imaginary mode]:

  596.75  716.17  729.57  836.70  874.02  878.57  899.85  981.15 1003.10
 1055.57 1091.79 1128.29 1382.39 1408.19 1421.17 1463.38 1485.34 1505.00
 1512.21 1521.92 1526.80 1538.25 1549.95 1575.50


--------------------------------------------------------------------------------
  K point     46 =   0.062500  0.687500  0.687500  Weight =    0.004
--------------------------------------------------------------------------------

  Frequencies (cm-1) [NB: Negative implies an imaginary mode]:

  486.75  596.94  765.13  867.05  867.05  945.88  949.40  949.40 1067.07
 1067.07 1099.66 1167.02 1350.15 1383.75 1429.79 1429.79 1487.11 1487.11
 1498.67 1498.67 1506.33 1558.53 1572.58 1601.86


--------------------------------------------------------------------------------
  K point     47 =   0.062500  0.687500  0.812500  Weight =    0.004
--------------------------------------------------------------------------------

  Frequencies (cm-1) [NB: Negative implies an imaginary mode]:

  425.03  493.94  650.12  871.53  906.31  993.75 1007.54 1048.98 1052.73
 1131.02 1136.21 1179.19 1304.68 1356.43 1382.09 1444.24 1445.21 1469.29
 1470.14 1485.97 1520.68 1582.20 1588.29 1616.40


--------------------------------------------------------------------------------
  K point     48 =   0.062500  0.687500  0.937500  Weight =    0.004
--------------------------------------------------------------------------------

  Frequencies (cm-1) [NB: Negative implies an imaginary mode]:

  421.28  433.97  555.47  876.75  883.12 1046.48 1075.83 1075.83 1136.11
 1136.11 1173.45 1173.45 1268.40 1268.40 1412.94 1412.94 1452.80 1452.83
 1452.83 1457.18 1532.09 1596.08 1596.41 1621.35


--------------------------------------------------------------------------------
  K point     49 =   0.062500  0.812500  0.062500  Weight =    0.004
--------------------------------------------------------------------------------

  Frequencies (cm-1) [NB: Negative implies an imaginary mode]:

  256.00  274.39  375.36  996.08 1006.62 1073.27 1073.27 1114.55 1114.55
 1176.21 1221.05 1221.05 1303.64 1303.64 1380.36 1380.36 1386.64 1392.49
 1432.17 1432.17 1476.27 1619.79 1620.15 1632.10


--------------------------------------------------------------------------------
  K point     50 =   0.062500  0.812500  0.187500  Weight =    0.004
--------------------------------------------------------------------------------

  Frequencies (cm-1) [NB: Negative implies an imaginary mode]:

  303.46  361.90  502.19  993.25  993.25 1024.95 1024.95 1035.29 1147.46
 1151.88 1151.88 1189.13 1330.33 1346.92 1376.60 1376.60 1417.01 1417.01
 1464.98 1473.68 1473.68 1605.97 1609.32 1628.58


--------------------------------------------------------------------------------
  K point     51 =   0.062500  0.812500  0.312500  Weight =    0.004
--------------------------------------------------------------------------------

  Frequencies (cm-1) [NB: Negative implies an imaginary mode]:

  425.03  493.94  650.12  871.53  906.31  993.75 1007.54 1048.98 1052.73
 1131.02 1136.21 1179.19 1304.68 1356.43 1382.09 1444.24 1445.21 1469.29
 1470.14 1485.97 1520.68 1582.20 1588.29 1616.40


--------------------------------------------------------------------------------
  K point     52 =   0.062500  0.812500  0.437500  Weight =    0.004
--------------------------------------------------------------------------------

  Frequencies (cm-1) [NB: Negative implies an imaginary mode]:

  575.06  635.73  728.12  775.14  796.41  932.37  992.49  994.01 1074.76
 1103.51 1136.25 1161.93 1308.23 1331.30 1415.92 1440.33 1482.04 1491.46
 1502.62 1517.82 1548.15 1557.65 1561.92 1594.20


--------------------------------------------------------------------------------
  K point     53 =   0.062500  0.812500  0.562500  Weight =    0.004
--------------------------------------------------------------------------------

  Frequencies (cm-1) [NB: Negative implies an imaginary mode]:

  575.06  635.73  728.12  775.14  796.41  932.37  992.49  994.01 1074.76
 1103.51 1136.25 1161.93 1308.23 1331.30 1415.92 1440.33 1482.04 1491.46
 1502.62 1517.82 1548.15 1557.65 1561.92 1594.20


--------------------------------------------------------------------------------
  K point     54 =   0.062500  0.812500  0.687500  Weight =    0.004
--------------------------------------------------------------------------------

  Frequencies (cm-1) [NB: Negative implies an imaginary mode]:

  425.03  493.94  650.12  871.53  906.31  993.75 1007.54 1048.98 1052.73
 1131.02 1136.21 1179.19 1304.68 1356.43 1382.09 1444.24 1445.21 1469.29
 1470.14 1485.97 1520.68 1582.20 1588.29 1616.40


--------------------------------------------------------------------------------
  K point     55 =   0.062500  0.812500  0.812500  Weight =    0.004
--------------------------------------------------------------------------------

  Frequencies (cm-1) [NB: Negative implies an imaginary mode]:

  303.46  361.90  502.19  993.25  993.25 1024.95 1024.95 1035.29 1147.46
 1151.88 1151.88 1189.13 1330.33 1346.92 1376.60 1376.60 1417.01 1417.01
 1464.98 1473.68 1473.68 1605.97 1609.32 1628.58


--------------------------------------------------------------------------------
  K point     56 =   0.062500  0.812500  0.937500  Weight =    0.004
--------------------------------------------------------------------------------

  Frequencies (cm-1) [NB: Negative implies an imaginary mode]:

  256.00  274.39  375.36  996.08 1006.62 1073.27 1073.27 1114.55 1114.55
 1176.21 1221.05 1221.05 1303.64 1303.64 1380.36 1380.36 1386.64 1392.49
 1432.17 1432.17 1476.27 1619.79 1620.15 1632.10


--------------------------------------------------------------------------------
  K point     57 =   0.062500  0.937500  0.062500  Weight =    0.004
--------------------------------------------------------------------------------

  Frequencies (cm-1) [NB: Negative implies an imaginary mode]:

  130.27  130.27  209.81 1080.31 1080.31 1080.31 1094.84 1094.84 1094.84
 1270.71 1270.71 1270.71 1329.34 1329.34 1329.34 1345.01 1345.01 1345.01
 1408.70 1408.70 1408.70 1632.15 1632.15 1636.24


--------------------------------------------------------------------------------
  K point     58 =   0.062500  0.937500  0.187500  Weight =    0.004
--------------------------------------------------------------------------------

  Frequencies (cm-1) [NB: Negative implies an imaginary mode]:

  256.00  274.39  375.36  996.08 1006.62 1073.27 1073.27 1114.55 1114.55
 1176.21 1221.05 1221.05 1303.64 1303.64 1380.36 1380.36 1386.64 1392.49
 1432.17 1432.17 1476.27 1619.79 1620.15 1632.10


--------------------------------------------------------------------------------
  K point     59 =   0.062500  0.937500  0.312500  Weight =    0.004
--------------------------------------------------------------------------------

  Frequencies (cm-1) [NB: Negative implies an imaginary mode]:

  421.28  433.97  555.47  876.75  883.12 1046.48 1075.83 1075.83 1136.11
 1136.11 1173.45 1173.45 1268.40 1268.40 1412.94 1412.94 1452.80 1452.83
 1452.83 1457.18 1532.09 1596.08 1596.41 1621.35


--------------------------------------------------------------------------------
  K point     60 =   0.062500  0.937500  0.437500  Weight =    0.004
--------------------------------------------------------------------------------

  Frequencies (cm-1) [NB: Negative implies an imaginary mode]:

  585.62  590.80  731.63  739.70  740.98  896.84 1087.36 1087.36 1131.70
 1131.70 1160.50 1160.50 1241.50 1241.50 1430.76 1430.76 1463.85 1463.85
 1511.82 1514.83 1559.91 1561.48 1573.61 1602.58


--------------------------------------------------------------------------------
  K point     61 =   0.062500  0.937500  0.562500  Weight =    0.004
--------------------------------------------------------------------------------

  Frequencies (cm-1) [NB: Negative implies an imaginary mode]:

  585.62  590.80  731.63  739.70  740.98  896.84 1087.36 1087.36 1131.70
 1131.70 1160.50 1160.50 1241.50 1241.50 1430.76 1430.76 1463.85 1463.85
 1511.82 1514.83 1559.91 1561.48 1573.61 1602.58


--------------------------------------------------------------------------------
  K point     62 =   0.062500  0.937500  0.687500  Weight =    0.004
--------------------------------------------------------------------------------

  Frequencies (cm-1) [NB: Negative implies an imaginary mode]:

  421.28  433.97  555.47  876.75  883.12 1046.48 1075.83 1075.83 1136.11
 1136.11 1173.45 1173.45 1268.40 1268.40 1412.94 1412.94 1452.80 1452.83
 1452.83 1457.18 1532.09 1596.08 1596.41 1621.35


--------------------------------------------------------------------------------
  K point     63 =   0.062500  0.937500  0.812500  Weight =    0.004
--------------------------------------------------------------------------------

  Frequencies (cm-1) [NB: Negative implies an imaginary mode]:

  256.00  274.39  375.36  996.08 1006.62 1073.27 1073.27 1114.55 1114.55
 1176.21 1221.05 1221.05 1303.64 1303.64 1380.36 1380.36 1386.64 1392.49
 1432.17 1432.17 1476.27 1619.79 1620.15 1632.10


--------------------------------------------------------------------------------
  K point     64 =   0.062500  0.937500  0.937500  Weight =    0.004
--------------------------------------------------------------------------------

  Frequencies (cm-1) [NB: Negative implies an imaginary mode]:

  130.27  130.27  209.81 1080.31 1080.31 1080.31 1094.84 1094.84 1094.84
 1270.71 1270.71 1270.71 1329.34 1329.34 1329.34 1345.01 1345.01 1345.01
 1408.70 1408.70 1408.70 1632.15 1632.15 1636.24


--------------------------------------------------------------------------------
  K point     65 =   0.187500  0.062500  0.062500  Weight =    0.004
--------------------------------------------------------------------------------

  Frequencies (cm-1) [NB: Negative implies an imaginary mode]:

  256.00  274.39  375.36  996.08 1006.62 1073.27 1073.27 1114.55 1114.55
 1176.21 1221.05 1221.05 1303.64 1303.64 1380.36 1380.36 1386.64 1392.49
 1432.17 1432.17 1476.27 1619.79 1620.15 1632.10


--------------------------------------------------------------------------------
  K point     66 =   0.187500  0.062500  0.187500  Weight =    0.004
--------------------------------------------------------------------------------

  Frequencies (cm-1) [NB: Negative implies an imaginary mode]:

  303.46  361.90  502.19  993.25  993.25 1024.95 1024.95 1035.29 1147.46
 1151.88 1151.88 1189.13 1330.33 1346.92 1376.60 1376.60 1417.01 1417.01
 1464.98 1473.68 1473.68 1605.97 1609.32 1628.58


--------------------------------------------------------------------------------
  K point     67 =   0.187500  0.062500  0.312500  Weight =    0.004
--------------------------------------------------------------------------------

  Frequencies (cm-1) [NB: Negative implies an imaginary mode]:

  425.03  493.94  650.12  871.53  906.31  993.75 1007.54 1048.98 1052.73
 1131.02 1136.21 1179.19 1304.68 1356.43 1382.09 1444.24 1445.21 1469.29
 1470.14 1485.97 1520.68 1582.20 1588.29 1616.40


--------------------------------------------------------------------------------
  K point     68 =   0.187500  0.062500  0.437500  Weight =    0.004
--------------------------------------------------------------------------------

  Frequencies (cm-1) [NB: Negative implies an imaginary mode]:

  575.06  635.73  728.12  775.14  796.41  932.37  992.49  994.01 1074.76
 1103.51 1136.25 1161.93 1308.23 1331.30 1415.92 1440.33 1482.04 1491.46
 1502.62 1517.82 1548.15 1557.65 1561.92 1594.20


--------------------------------------------------------------------------------
  K point     69 =   0.187500  0.062500  0.562500  Weight =    0.004
--------------------------------------------------------------------------------

  Frequencies (cm-1) [NB: Negative implies an imaginary mode]:

  575.06  635.73  728.12  775.14  796.41  932.37  992.49  994.01 1074.76
 1103.51 1136.25 1161.93 1308.23 1331.30 1415.92 1440.33 1482.04 1491.46
 1502.62 1517.82 1548.15 1557.65 1561.92 1594.20


--------------------------------------------------------------------------------
  K point     70 =   0.187500  0.062500  0.687500  Weight =    0.004
--------------------------------------------------------------------------------

  Frequencies (cm-1) [NB: Negative implies an imaginary mode]:

  425.03  493.94  650.12  871.53  906.31  993.75 1007.54 1048.98 1052.73
 1131.02 1136.21 1179.19 1304.68 1356.43 1382.09 1444.24 1445.21 1469.29
 1470.14 1485.97 1520.68 1582.20 1588.29 1616.40


--------------------------------------------------------------------------------
  K point     71 =   0.187500  0.062500  0.812500  Weight =    0.004
--------------------------------------------------------------------------------

  Frequencies (cm-1) [NB: Negative implies an imaginary mode]:

  303.46  361.90  502.19  993.25  993.25 1024.95 1024.95 1035.29 1147.46
 1151.88 1151.88 1189.13 1330.33 1346.92 1376.60 1376.60 1417.01 1417.01
 1464.98 1473.68 1473.68 1605.97 1609.32 1628.58


--------------------------------------------------------------------------------
  K point     72 =   0.187500  0.062500  0.937500  Weight =    0.004
--------------------------------------------------------------------------------

  Frequencies (cm-1) [NB: Negative implies an imaginary mode]:

  256.00  274.39  375.36  996.08 1006.62 1073.27 1073.27 1114.55 1114.55
 1176.21 1221.05 1221.05 1303.64 1303.64 1380.36 1380.36 1386.64 1392.49
 1432.17 1432.17 1476.27 1619.79 1620.15 1632.10


--------------------------------------------------------------------------------
  K point     73 =   0.187500  0.187500  0.062500  Weight =    0.004
--------------------------------------------------------------------------------

  Frequencies (cm-1) [NB: Negative implies an imaginary mode]:

  303.46  361.90  502.19  993.25  993.25 1024.95 1024.95 1035.29 1147.46
 1151.88 1151.88 1189.13 1330.33 1346.92 1376.60 1376.60 1417.01 1417.01
 1464.98 1473.68 1473.68 1605.97 1609.32 1628.58


--------------------------------------------------------------------------------
  K point     74 =   0.187500  0.187500  0.187500  Weight =    0.004
--------------------------------------------------------------------------------

  Frequencies (cm-1) [NB: Negative implies an imaginary mode]:

  379.67  379.67  608.85  969.46  969.46  969.46 1038.25 1038.25 1038.25
 1148.71 1148.71 1148.71 1389.17 1389.17 1389.17 1404.88 1404.88 1404.88
 1482.47 1482.47 1482.47 1594.81 1594.81 1626.29


--------------------------------------------------------------------------------
  K point     75 =   0.187500  0.187500  0.312500  Weight =    0.004
--------------------------------------------------------------------------------

  Frequencies (cm-1) [NB: Negative implies an imaginary mode]:

  469.57  494.86  738.75  868.36  900.94  952.60  952.60 1031.32 1031.32
 1077.14 1157.61 1157.61 1375.40 1375.40 1420.17 1420.17 1444.09 1471.34
 1489.57 1489.57 1512.77 1572.55 1573.08 1614.29


--------------------------------------------------------------------------------
  K point     76 =   0.187500  0.187500  0.437500  Weight =    0.004
--------------------------------------------------------------------------------

  Frequencies (cm-1) [NB: Negative implies an imaginary mode]:

  603.42  622.57  749.77  752.54  866.35  945.21  945.21  981.22 1018.86
 1018.86 1169.77 1169.77 1361.15 1361.15 1435.03 1435.03 1492.20 1492.20
 1495.94 1515.37 1539.37 1546.71 1553.09 1589.78


--------------------------------------------------------------------------------
  K point     77 =   0.187500  0.187500  0.562500  Weight =    0.004
--------------------------------------------------------------------------------

  Frequencies (cm-1) [NB: Negative implies an imaginary mode]:

  603.42  622.57  749.77  752.54  866.35  945.21  945.21  981.22 1018.86
 1018.86 1169.77 1169.77 1361.15 1361.15 1435.03 1435.03 1492.20 1492.20
 1495.94 1515.37 1539.37 1546.71 1553.09 1589.78


--------------------------------------------------------------------------------
  K point     78 =   0.187500  0.187500  0.687500  Weight =    0.004
--------------------------------------------------------------------------------

  Frequencies (cm-1) [NB: Negative implies an imaginary mode]:

  469.57  494.86  738.75  868.36  900.94  952.60  952.60 1031.32 1031.32
 1077.14 1157.61 1157.61 1375.40 1375.40 1420.17 1420.17 1444.09 1471.34
 1489.57 1489.57 1512.77 1572.55 1573.08 1614.29


--------------------------------------------------------------------------------
  K point     79 =   0.187500  0.187500  0.812500  Weight =    0.004
--------------------------------------------------------------------------------

  Frequencies (cm-1) [NB: Negative implies an imaginary mode]:

  379.67  379.67  608.85  969.46  969.46  969.46 1038.25 1038.25 1038.25
 1148.71 1148.71 1148.71 1389.17 1389.17 1389.17 1404.88 1404.88 1404.88
 1482.47 1482.47 1482.47 1594.81 1594.81 1626.29


--------------------------------------------------------------------------------
  K point     80 =   0.187500  0.187500  0.937500  Weight =    0.004
--------------------------------------------------------------------------------

  Frequencies (cm-1) [NB: Negative implies an imaginary mode]:

  303.46  361.90  502.19  993.25  993.25 1024.95 1024.95 1035.29 1147.46
 1151.88 1151.88 1189.13 1330.33 1346.92 1376.60 1376.60 1417.01 1417.01
 1464.98 1473.68 1473.68 1605.97 1609.32 1628.58


--------------------------------------------------------------------------------
  K point     81 =   0.187500  0.312500  0.062500  Weight =    0.004
--------------------------------------------------------------------------------

  Frequencies (cm-1) [NB: Negative implies an imaginary mode]:

  425.03  493.94  650.12  871.53  906.31  993.75 1007.54 1048.98 1052.73
 1131.02 1136.21 1179.19 1304.68 1356.43 1382.09 1444.24 1445.21 1469.29
 1470.14 1485.97 1520.68 1582.20 1588.29 1616.40


--------------------------------------------------------------------------------
  K point     82 =   0.187500  0.312500  0.187500  Weight =    0.004
--------------------------------------------------------------------------------

  Frequencies (cm-1) [NB: Negative implies an imaginary mode]:

  469.57  494.86  738.75  868.36  900.94  952.60  952.60 1031.32 1031.32
 1077.14 1157.61 1157.61 1375.40 1375.40 1420.17 1420.17 1444.09 1471.34
 1489.57 1489.57 1512.77 1572.55 1573.08 1614.29


--------------------------------------------------------------------------------
  K point     83 =   0.187500  0.312500  0.312500  Weight =    0.004
--------------------------------------------------------------------------------

  Frequencies (cm-1) [NB: Negative implies an imaginary mode]:

  524.95  573.74  847.80  858.89  858.89  907.34  910.42  910.42  999.69
 1112.22 1112.22 1176.68 1405.23 1405.45 1434.58 1434.58 1477.77 1477.77
 1499.38 1499.38 1500.85 1549.62 1554.93 1602.16


--------------------------------------------------------------------------------
  K point     84 =   0.187500  0.312500  0.437500  Weight =    0.004
--------------------------------------------------------------------------------

  Frequencies (cm-1) [NB: Negative implies an imaginary mode]:

  620.60  679.76  740.49  793.01  857.55  873.57  933.24  952.86  964.59
 1043.04 1147.10 1172.17 1406.53 1419.51 1437.83 1466.33 1481.86 1497.96
 1502.93 1511.38 1520.05 1532.48 1535.83 1576.32


--------------------------------------------------------------------------------
  K point     85 =   0.187500  0.312500  0.562500  Weight =    0.004
--------------------------------------------------------------------------------

  Frequencies (cm-1) [NB: Negative implies an imaginary mode]:

  620.60  679.76  740.49  793.01  857.55  873.57  933.24  952.86  964.59
 1043.04 1147.10 1172.17 1406.53 1419.51 1437.83 1466.33 1481.86 1497.96
 1502.93 1511.38 1520.05 1532.48 1535.83 1576.32


--------------------------------------------------------------------------------
  K point     86 =   0.187500  0.312500  0.687500  Weight =    0.004
--------------------------------------------------------------------------------

  Frequencies (cm-1) [NB: Negative implies an imaginary mode]:

  524.95  573.74  847.80  858.89  858.89  907.34  910.42  910.42  999.69
 1112.22 1112.22 1176.68 1405.23 1405.45 1434.58 1434.58 1477.77 1477.77
 1499.38 1499.38 1500.85 1549.62 1554.93 1602.16


--------------------------------------------------------------------------------
  K point     87 =   0.187500  0.312500  0.812500  Weight =    0.004
--------------------------------------------------------------------------------

  Frequencies (cm-1) [NB: Negative implies an imaginary mode]:

  469.57  494.86  738.75  868.36  900.94  952.60  952.60 1031.32 1031.32
 1077.14 1157.61 1157.61 1375.40 1375.40 1420.17 1420.17 1444.09 1471.34
 1489.57 1489.57 1512.77 1572.55 1573.08 1614.29


--------------------------------------------------------------------------------
  K point     88 =   0.187500  0.312500  0.937500  Weight =    0.004
--------------------------------------------------------------------------------

  Frequencies (cm-1) [NB: Negative implies an imaginary mode]:

  425.03  493.94  650.12  871.53  906.31  993.75 1007.54 1048.98 1052.73
 1131.02 1136.21 1179.19 1304.68 1356.43 1382.09 1444.24 1445.21 1469.29
 1470.14 1485.97 1520.68 1582.20 1588.29 1616.40


--------------------------------------------------------------------------------
  K point     89 =   0.187500  0.437500  0.062500  Weight =    0.004
--------------------------------------------------------------------------------

  Frequencies (cm-1) [NB: Negative implies an imaginary mode]:

  575.06  635.73  728.12  775.14  796.41  932.37  992.49  994.01 1074.76
 1103.51 1136.25 1161.93 1308.23 1331.30 1415.92 1440.33 1482.04 1491.46
 1502.62 1517.82 1548.15 1557.65 1561.92 1594.20


--------------------------------------------------------------------------------
  K point     90 =   0.187500  0.437500  0.187500  Weight =    0.004
--------------------------------------------------------------------------------

  Frequencies (cm-1) [NB: Negative implies an imaginary mode]:

  603.42  622.57  749.77  752.54  866.35  945.21  945.21  981.22 1018.86
 1018.86 1169.77 1169.77 1361.15 1361.15 1435.03 1435.03 1492.20 1492.20
 1495.94 1515.37 1539.37 1546.71 1553.09 1589.78


--------------------------------------------------------------------------------
  K point     91 =   0.187500  0.437500  0.312500  Weight =    0.004
--------------------------------------------------------------------------------

  Frequencies (cm-1) [NB: Negative implies an imaginary mode]:

  620.60  679.76  740.49  793.01  857.55  873.57  933.24  952.86  964.59
 1043.04 1147.10 1172.17 1406.53 1419.51 1437.83 1466.33 1481.86 1497.96
 1502.93 1511.38 1520.05 1532.48 1535.83 1576.32


--------------------------------------------------------------------------------
  K point     92 =   0.187500  0.437500  0.437500  Weight =    0.004
--------------------------------------------------------------------------------

  Frequencies (cm-1) [NB: Negative implies an imaginary mode]:

  673.58  758.67  758.67  760.27  805.97  847.13  847.13  906.39 1034.41
 1101.02 1101.02 1146.60 1442.41 1461.18 1463.08 1463.08 1494.56 1495.93
 1495.93 1511.18 1515.45 1518.93 1518.93 1551.51


--------------------------------------------------------------------------------
  K point     93 =   0.187500  0.437500  0.562500  Weight =    0.004
--------------------------------------------------------------------------------

  Frequencies (cm-1) [NB: Negative implies an imaginary mode]:

  673.58  758.67  758.67  760.27  805.97  847.13  847.13  906.39 1034.41
 1101.02 1101.02 1146.60 1442.41 1461.18 1463.08 1463.08 1494.56 1495.93
 1495.93 1511.18 1515.45 1518.93 1518.93 1551.51


--------------------------------------------------------------------------------
  K point     94 =   0.187500  0.437500  0.687500  Weight =    0.004
--------------------------------------------------------------------------------

  Frequencies (cm-1) [NB: Negative implies an imaginary mode]:

  620.60  679.76  740.49  793.01  857.55  873.57  933.24  952.86  964.59
 1043.04 1147.10 1172.17 1406.53 1419.51 1437.83 1466.33 1481.86 1497.96
 1502.93 1511.38 1520.05 1532.48 1535.83 1576.32


--------------------------------------------------------------------------------
  K point     95 =   0.187500  0.437500  0.812500  Weight =    0.004
--------------------------------------------------------------------------------

  Frequencies (cm-1) [NB: Negative implies an imaginary mode]:

  603.42  622.57  749.77  752.54  866.35  945.21  945.21  981.22 1018.86
 1018.86 1169.77 1169.77 1361.15 1361.15 1435.03 1435.03 1492.20 1492.20
 1495.94 1515.37 1539.37 1546.71 1553.09 1589.78


--------------------------------------------------------------------------------
  K point     96 =   0.187500  0.437500  0.937500  Weight =    0.004
--------------------------------------------------------------------------------

  Frequencies (cm-1) [NB: Negative implies an imaginary mode]:

  575.06  635.73  728.12  775.14  796.41  932.37  992.49  994.01 1074.76
 1103.51 1136.25 1161.93 1308.23 1331.30 1415.92 1440.33 1482.04 1491.46
 1502.62 1517.82 1548.15 1557.65 1561.92 1594.20


--------------------------------------------------------------------------------
  K point     97 =   0.187500  0.562500  0.062500  Weight =    0.004
--------------------------------------------------------------------------------

  Frequencies (cm-1) [NB: Negative implies an imaginary mode]:

  575.06  635.73  728.12  775.14  796.41  932.37  992.49  994.01 1074.76
 1103.51 1136.25 1161.93 1308.23 1331.30 1415.92 1440.33 1482.04 1491.46
 1502.62 1517.82 1548.15 1557.65 1561.92 1594.20


--------------------------------------------------------------------------------
  K point     98 =   0.187500  0.562500  0.187500  Weight =    0.004
--------------------------------------------------------------------------------

  Frequencies (cm-1) [NB: Negative implies an imaginary mode]:

  603.42  622.57  749.77  752.54  866.35  945.21  945.21  981.22 1018.86
 1018.86 1169.77 1169.77 1361.15 1361.15 1435.03 1435.03 1492.20 1492.20
 1495.94 1515.37 1539.37 1546.71 1553.09 1589.78


--------------------------------------------------------------------------------
  K point     99 =   0.187500  0.562500  0.312500  Weight =    0.004
--------------------------------------------------------------------------------

  Frequencies (cm-1) [NB: Negative implies an imaginary mode]:

  620.60  679.76  740.49  793.01  857.55  873.57  933.24  952.86  964.59
 1043.04 1147.10 1172.17 1406.53 1419.51 1437.83 1466.33 1481.86 1497.96
 1502.93 1511.38 1520.05 1532.48 1535.83 1576.32


--------------------------------------------------------------------------------
  K point    100 =   0.187500  0.562500  0.437500  Weight =    0.004
--------------------------------------------------------------------------------

  Frequencies (cm-1) [NB: Negative implies an imaginary mode]:

  673.58  758.67  758.67  760.27  805.97  847.13  847.13  906.39 1034.41
 1101.02 1101.02 1146.60 1442.41 1461.18 1463.08 1463.08 1494.56 1495.93
 1495.93 1511.18 1515.45 1518.93 1518.93 1551.51


--------------------------------------------------------------------------------
  K point    101 =   0.187500  0.562500  0.562500  Weight =    0.004
--------------------------------------------------------------------------------

  Frequencies (cm-1) [NB: Negative implies an imaginary mode]:

  673.58  758.67  758.67  760.27  805.97  847.13  847.13  906.39 1034.41
 1101.02 1101.02 1146.60 1442.41 1461.18 1463.08 1463.08 1494.56 1495.93
 1495.93 1511.18 1515.45 1518.93 1518.93 1551.51


--------------------------------------------------------------------------------
  K point    102 =   0.187500  0.562500  0.687500  Weight =    0.004
--------------------------------------------------------------------------------

  Frequencies (cm-1) [NB: Negative implies an imaginary mode]:

  620.60  679.76  740.49  793.01  857.55  873.57  933.24  952.86  964.59
 1043.04 1147.10 1172.17 1406.53 1419.51 1437.83 1466.33 1481.86 1497.96
 1502.93 1511.38 1520.05 1532.48 1535.83 1576.32


--------------------------------------------------------------------------------
  K point    103 =   0.187500  0.562500  0.812500  Weight =    0.004
--------------------------------------------------------------------------------

  Frequencies (cm-1) [NB: Negative implies an imaginary mode]:

  603.42  622.57  749.77  752.54  866.35  945.21  945.21  981.22 1018.86
 1018.86 1169.77 1169.77 1361.15 1361.15 1435.03 1435.03 1492.20 1492.20
 1495.94 1515.37 1539.37 1546.71 1553.09 1589.78


--------------------------------------------------------------------------------
  K point    104 =   0.187500  0.562500  0.937500  Weight =    0.004
--------------------------------------------------------------------------------

  Frequencies (cm-1) [NB: Negative implies an imaginary mode]:

  575.06  635.73  728.12  775.14  796.41  932.37  992.49  994.01 1074.76
 1103.51 1136.25 1161.93 1308.23 1331.30 1415.92 1440.33 1482.04 1491.46
 1502.62 1517.82 1548.15 1557.65 1561.92 1594.20


--------------------------------------------------------------------------------
  K point    105 =   0.187500  0.687500  0.062500  Weight =    0.004
--------------------------------------------------------------------------------

  Frequencies (cm-1) [NB: Negative implies an imaginary mode]:

  425.03  493.94  650.12  871.53  906.31  993.75 1007.54 1048.98 1052.73
 1131.02 1136.21 1179.19 1304.68 1356.43 1382.09 1444.24 1445.21 1469.29
 1470.14 1485.97 1520.68 1582.20 1588.29 1616.40


--------------------------------------------------------------------------------
  K point    106 =   0.187500  0.687500  0.187500  Weight =    0.004
--------------------------------------------------------------------------------

  Frequencies (cm-1) [NB: Negative implies an imaginary mode]:

  469.57  494.86  738.75  868.36  900.94  952.60  952.60 1031.32 1031.32
[...]
--------------------------------------------------------------------------------
  Zero point energy            =        1.772664 eV
  Entropy                      =        0.000002 eV/K
                               =        0.177548 J/(mol.K)
  Helmholtz free-energy        =      -57.138848 eV
                               =    -5513.024941 kJmol-1
  Free energy (equipartition)  =      -58.412700 eV
  - T*S       (equipartition)  =        0.333325 eV
  Uvib        (equipartition)  =        0.165453 eV
  Mean kinetic energy          =        0.886389 eV
  Heat capacity - const volume =        0.000006 eV/K
                               =        0.570911 J/(mol.K)
--------------------------------------------------------------------------------
  Phonon properties (per mole of unit cells): Temperature =     90.000 K
--------------------------------------------------------------------------------
  Zero point energy            =        1.772664 eV
  Entropy                      =        0.000003 eV/K
                               =        0.258917 J/(mol.K)
  Helmholtz free-energy        =      -57.138871 eV
                               =    -5513.027106 kJmol-1
  Free energy (equipartition)  =      -58.372277 eV
  - T*S       (equipartition)  =        0.353068 eV
  Uvib        (equipartition)  =        0.186134 eV
  Mean kinetic energy          =        0.886425 eV
  Heat capacity - const volume =        0.000009 eV/K
                               =        0.827177 J/(mol.K)
--------------------------------------------------------------------------------
  Phonon properties (per mole of unit cells): Temperature =    100.000 K
--------------------------------------------------------------------------------
  Zero point energy            =        1.772664 eV
  Entropy                      =        0.000004 eV/K
                               =        0.362487 J/(mol.K)
  Helmholtz free-energy        =      -57.138903 eV
                               =    -5513.030193 kJmol-1
  Free energy (equipartition)  =      -58.334156 eV
  - T*S       (equipartition)  =        0.370507 eV
  Uvib        (equipartition)  =        0.206816 eV
  Mean kinetic energy          =        0.886476 eV
  Heat capacity - const volume =        0.000012 eV/K
                               =        1.158157 J/(mol.K)
--------------------------------------------------------------------------------
  Phonon properties (per mole of unit cells): Temperature =    110.000 K
--------------------------------------------------------------------------------
  Zero point energy            =        1.772664 eV
  Entropy                      =        0.000005 eV/K
                               =        0.491758 J/(mol.K)
  Helmholtz free-energy        =      -57.138947 eV
                               =    -5513.034441 kJmol-1
  Free energy (equipartition)  =      -58.298106 eV
  - T*S       (equipartition)  =        0.385875 eV
  Uvib        (equipartition)  =        0.227498 eV
  Mean kinetic energy          =        0.886546 eV
  Heat capacity - const volume =        0.000016 eV/K
                               =        1.576814 J/(mol.K)
--------------------------------------------------------------------------------
  Phonon properties (per mole of unit cells): Temperature =    120.000 K
--------------------------------------------------------------------------------
  Zero point energy            =        1.772664 eV
  Entropy                      =        0.000007 eV/K
                               =        0.650441 J/(mol.K)
  Helmholtz free-energy        =      -57.139006 eV
                               =    -5513.040126 kJmol-1
  Free energy (equipartition)  =      -58.263939 eV
  - T*S       (equipartition)  =        0.399360 eV
  Uvib        (equipartition)  =        0.248179 eV
  Mean kinetic energy          =        0.886641 eV
  Heat capacity - const volume =        0.000022 eV/K
                               =        2.095864 J/(mol.K)
--------------------------------------------------------------------------------
  Phonon properties (per mole of unit cells): Temperature =    130.000 K
--------------------------------------------------------------------------------
  Zero point energy            =        1.772664 eV
  Entropy                      =        0.000009 eV/K
                               =        0.842335 J/(mol.K)
  Helmholtz free-energy        =      -57.139083 eV
                               =    -5513.047561 kJmol-1
  Free energy (equipartition)  =      -58.231498 eV
  - T*S       (equipartition)  =        0.411120 eV
  Uvib        (equipartition)  =        0.268861 eV
  Mean kinetic energy          =        0.886765 eV
  Heat capacity - const volume =        0.000028 eV/K
                               =        2.726888 J/(mol.K)
--------------------------------------------------------------------------------
  Phonon properties (per mole of unit cells): Temperature =    140.000 K
--------------------------------------------------------------------------------
  Zero point energy            =        1.772664 eV
  Entropy                      =        0.000011 eV/K
                               =        1.071190 J/(mol.K)
  Helmholtz free-energy        =      -57.139182 eV
                               =    -5513.057096 kJmol-1
  Free energy (equipartition)  =      -58.200649 eV
  - T*S       (equipartition)  =        0.421287 eV
  Uvib        (equipartition)  =        0.289542 eV
  Mean kinetic energy          =        0.886926 eV
  Heat capacity - const volume =        0.000036 eV/K
                               =        3.479639 J/(mol.K)
--------------------------------------------------------------------------------
  Phonon properties (per mole of unit cells): Temperature =    150.000 K
--------------------------------------------------------------------------------
  Zero point energy            =        1.772664 eV
  Entropy                      =        0.000014 eV/K
                               =        1.340576 J/(mol.K)
  Helmholtz free-energy        =      -57.139306 eV
                               =    -5513.069120 kJmol-1
  Free energy (equipartition)  =      -58.171279 eV
  - T*S       (equipartition)  =        0.429976 eV
  Uvib        (equipartition)  =        0.310224 eV
  Mean kinetic energy          =        0.887128 eV
  Heat capacity - const volume =        0.000045 eV/K
                               =        4.361647 J/(mol.K)
--------------------------------------------------------------------------------
  Phonon properties (per mole of unit cells): Temperature =    160.000 K
--------------------------------------------------------------------------------
  Zero point energy            =        1.772664 eV
  Entropy                      =        0.000017 eV/K
                               =        1.653785 J/(mol.K)
  Helmholtz free-energy        =      -57.139461 eV
                               =    -5513.084054 kJmol-1
  Free energy (equipartition)  =      -58.143288 eV
  - T*S       (equipartition)  =        0.437285 eV
  Uvib        (equipartition)  =        0.330906 eV
  Mean kinetic energy          =        0.887380 eV
  Heat capacity - const volume =        0.000056 eV/K
                               =        5.378098 J/(mol.K)
--------------------------------------------------------------------------------
  Phonon properties (per mole of unit cells): Temperature =    170.000 K
--------------------------------------------------------------------------------
  Zero point energy            =        1.772664 eV
  Entropy                      =        0.000021 eV/K
                               =        2.013753 J/(mol.K)
  Helmholtz free-energy        =      -57.139651 eV
                               =    -5513.102352 kJmol-1
  Free energy (equipartition)  =      -58.116591 eV
  - T*S       (equipartition)  =        0.443300 eV
  Uvib        (equipartition)  =        0.351587 eV
  Mean kinetic energy          =        0.887688 eV
  Heat capacity - const volume =        0.000068 eV/K
                               =        6.531899 J/(mol.K)
--------------------------------------------------------------------------------
  Phonon properties (per mole of unit cells): Temperature =    180.000 K
--------------------------------------------------------------------------------
  Zero point energy            =        1.772664 eV
  Entropy                      =        0.000025 eV/K
                               =        2.423021 J/(mol.K)
  Helmholtz free-energy        =      -57.139880 eV
                               =    -5513.124493 kJmol-1
  Free energy (equipartition)  =      -58.091112 eV
  - T*S       (equipartition)  =        0.448098 eV
  Uvib        (equipartition)  =        0.372269 eV
  Mean kinetic energy          =        0.888059 eV
  Heat capacity - const volume =        0.000081 eV/K
                               =        7.823861 J/(mol.K)
--------------------------------------------------------------------------------
  Phonon properties (per mole of unit cells): Temperature =    190.000 K
--------------------------------------------------------------------------------
  Zero point energy            =        1.772664 eV
  Entropy                      =        0.000030 eV/K
                               =        2.883707 J/(mol.K)
  Helmholtz free-energy        =      -57.140155 eV
                               =    -5513.150983 kJmol-1
  Free energy (equipartition)  =      -58.066781 eV
  - T*S       (equipartition)  =        0.451747 eV
  Uvib        (equipartition)  =        0.392951 eV
  Mean kinetic energy          =        0.888501 eV
  Heat capacity - const volume =        0.000096 eV/K
                               =        9.252931 J/(mol.K)
--------------------------------------------------------------------------------
  Phonon properties (per mole of unit cells): Temperature =    200.000 K
--------------------------------------------------------------------------------
  Zero point energy            =        1.772664 eV
  Entropy                      =        0.000035 eV/K
                               =        3.397510 J/(mol.K)
  Helmholtz free-energy        =      -57.140480 eV
                               =    -5513.182345 kJmol-1
  Free energy (equipartition)  =      -58.043540 eV
  - T*S       (equipartition)  =        0.454306 eV
  Uvib        (equipartition)  =        0.413632 eV
  Mean kinetic energy          =        0.889021 eV
  Heat capacity - const volume =        0.000112 eV/K
                               =       10.816430 J/(mol.K)
--------------------------------------------------------------------------------
  Phonon properties (per mole of unit cells): Temperature =    210.000 K
--------------------------------------------------------------------------------
  Zero point energy            =        1.772664 eV
  Entropy                      =        0.000041 eV/K
                               =        3.965710 J/(mol.K)
  Helmholtz free-energy        =      -57.140861 eV
                               =    -5513.219115 kJmol-1
  Free energy (equipartition)  =      -58.021334 eV
  - T*S       (equipartition)  =        0.455831 eV
  Uvib        (equipartition)  =        0.434314 eV
  Mean kinetic energy          =        0.889625 eV
  Heat capacity - const volume =        0.000130 eV/K
                               =       12.510278 J/(mol.K)
--------------------------------------------------------------------------------
  Phonon properties (per mole of unit cells): Temperature =    220.000 K
--------------------------------------------------------------------------------
  Zero point energy            =        1.772664 eV
  Entropy                      =        0.000048 eV/K
                               =        4.589196 J/(mol.K)
  Helmholtz free-energy        =      -57.141304 eV
                               =    -5513.261843 kJmol-1
  Free energy (equipartition)  =      -58.000112 eV
  - T*S       (equipartition)  =        0.456371 eV
  Uvib        (equipartition)  =        0.454995 eV
  Mean kinetic energy          =        0.890320 eV
  Heat capacity - const volume =        0.000149 eV/K
                               =       14.329205 J/(mol.K)
--------------------------------------------------------------------------------
  Phonon properties (per mole of unit cells): Temperature =    230.000 K
--------------------------------------------------------------------------------
  Zero point energy            =        1.772664 eV
  Entropy                      =        0.000055 eV/K
                               =        5.268475 J/(mol.K)
  Helmholtz free-energy        =      -57.141814 eV
                               =    -5513.311085 kJmol-1
  Free energy (equipartition)  =      -57.979831 eV
  - T*S       (equipartition)  =        0.455971 eV
  Uvib        (equipartition)  =        0.475677 eV
  Mean kinetic energy          =        0.891112 eV
  Heat capacity - const volume =        0.000169 eV/K
                               =       16.266935 J/(mol.K)
--------------------------------------------------------------------------------
  Phonon properties (per mole of unit cells): Temperature =    240.000 K
--------------------------------------------------------------------------------
  Zero point energy            =        1.772664 eV
  Entropy                      =        0.000062 eV/K
                               =        6.003709 J/(mol.K)
  Helmholtz free-energy        =      -57.142398 eV
                               =    -5513.367399 kJmol-1
  Free energy (equipartition)  =      -57.960449 eV
  - T*S       (equipartition)  =        0.454671 eV
  Uvib        (equipartition)  =        0.496359 eV
  Mean kinetic energy          =        0.892007 eV
  Heat capacity - const volume =        0.000190 eV/K
                               =       18.316362 J/(mol.K)
--------------------------------------------------------------------------------
  Phonon properties (per mole of unit cells): Temperature =    250.000 K
--------------------------------------------------------------------------------
  Zero point energy            =        1.772664 eV
  Entropy                      =        0.000070 eV/K
                               =        6.794733 J/(mol.K)
  Helmholtz free-energy        =      -57.143061 eV
                               =    -5513.431345 kJmol-1
  Free energy (equipartition)  =      -57.941930 eV
  - T*S       (equipartition)  =        0.452509 eV
  Uvib        (equipartition)  =        0.517040 eV
  Mean kinetic energy          =        0.893012 eV
  Heat capacity - const volume =        0.000212 eV/K
                               =       20.469716 J/(mol.K)
--------------------------------------------------------------------------------
  Phonon properties (per mole of unit cells): Temperature =    260.000 K
--------------------------------------------------------------------------------
  Zero point energy            =        1.772664 eV
  Entropy                      =        0.000079 eV/K
                               =        7.641087 J/(mol.K)
  Helmholtz free-energy        =      -57.143808 eV
                               =    -5513.503478 kJmol-1
  Free energy (equipartition)  =      -57.924238 eV
  - T*S       (equipartition)  =        0.449519 eV
  Uvib        (equipartition)  =        0.537722 eV
  Mean kinetic energy          =        0.894131 eV
  Heat capacity - const volume =        0.000235 eV/K
                               =       22.718713 J/(mol.K)
--------------------------------------------------------------------------------
  Phonon properties (per mole of unit cells): Temperature =    270.000 K
--------------------------------------------------------------------------------
  Zero point energy            =        1.772664 eV
  Entropy                      =        0.000089 eV/K
                               =        8.542042 J/(mol.K)
  Helmholtz free-energy        =      -57.144646 eV
                               =    -5513.584349 kJmol-1
  Free energy (equipartition)  =      -57.907341 eV
  - T*S       (equipartition)  =        0.445734 eV
  Uvib        (equipartition)  =        0.558403 eV
  Mean kinetic energy          =        0.895368 eV
  Heat capacity - const volume =        0.000260 eV/K
                               =       25.054700 J/(mol.K)
--------------------------------------------------------------------------------
  Phonon properties (per mole of unit cells): Temperature =    280.000 K
--------------------------------------------------------------------------------
  Zero point energy            =        1.772664 eV
  Entropy                      =        0.000098 eV/K
                               =        9.496630 J/(mol.K)
  Helmholtz free-energy        =      -57.145581 eV
                               =    -5513.674498 kJmol-1
  Free energy (equipartition)  =      -57.891211 eV
  - T*S       (equipartition)  =        0.441183 eV
  Uvib        (equipartition)  =        0.579085 eV
  Mean kinetic energy          =        0.896729 eV
  Heat capacity - const volume =        0.000285 eV/K
                               =       27.468797 J/(mol.K)
--------------------------------------------------------------------------------
  Phonon properties (per mole of unit cells): Temperature =    290.000 K
--------------------------------------------------------------------------------
  Zero point energy            =        1.772664 eV
  Entropy                      =        0.000109 eV/K
                               =       10.503673 J/(mol.K)
  Helmholtz free-energy        =      -57.146617 eV
                               =    -5513.774456 kJmol-1
  Free energy (equipartition)  =      -57.875819 eV
  - T*S       (equipartition)  =        0.435893 eV
  Uvib        (equipartition)  =        0.599767 eV
  Mean kinetic energy          =        0.898216 eV
  Heat capacity - const volume =        0.000310 eV/K
                               =       29.952020 J/(mol.K)
--------------------------------------------------------------------------------
  Phonon properties (per mole of unit cells): Temperature =    300.000 K
--------------------------------------------------------------------------------
  Zero point energy            =        1.772664 eV
  Entropy                      =        0.000120 eV/K
                               =       11.561804 J/(mol.K)
  Helmholtz free-energy        =      -57.147760 eV
                               =    -5513.884742 kJmol-1
  Free energy (equipartition)  =      -57.861141 eV
  - T*S       (equipartition)  =        0.429890 eV
  Uvib        (equipartition)  =        0.620448 eV
  Mean kinetic energy          =        0.899834 eV
  Heat capacity - const volume =        0.000337 eV/K
                               =       32.495398 J/(mol.K)
--------------------------------------------------------------------------------

  Time to end of properties =      16.0978 seconds


  Peak dynamic memory used =       1.93 MB 


  Timing analysis for GULP :

--------------------------------------------------------------------------------
  Task / Subroutine                                          Time (Seconds)
--------------------------------------------------------------------------------
  Calculation of real space energy and derivatives                0.0050
  Calculation of Brenner energy and derivatives                  15.7271
  Calculation of phonons                                         15.9983
  Disk read/write operations to scratch files                     0.0609
--------------------------------------------------------------------------------
  Total CPU time                                                 16.0978
--------------------------------------------------------------------------------


  Job Finished at 09:35.04 31st July       2020                               

