********************************************************************************
*                       GENERAL UTILITY LATTICE PROGRAM                        *
*                                 Julian Gale                                  *
*                       Curtin Institute for Computation                       *
*                    School of Molecular and Life Sciences                     *
*                    Curtin University, Western Australia                      *
********************************************************************************
* Version = 5.2.0 * Last modified =  17th December 2019                        *
********************************************************************************
*  single       - perform a single point run                                   *
*  property     - calculate properties for final geometry                      *
*  phonon       - calculate phonons for final geometry                         *
********************************************************************************
* ASE calculation                                                              *
********************************************************************************


  Job Started  at 21:49.26 30th July       2020                               

  Number of CPUs =     1


  Total number of configurations input =      1

********************************************************************************
*  Input for Configuration =   1                                               *
********************************************************************************

  Formula = C64                                                         

  Number of irreducible atoms/shells =      64


  Total number atoms/shells =      64

  Dimensionality = 3               :  Bulk   



  Cartesian lattice vectors (Angstroms) :

        7.593100    0.000000    0.000000
        0.000000    7.593100    0.000000
        0.000000    0.000000    7.593100

  Cell parameters (Angstroms/Degrees):

  a =       7.5931    alpha =  90.0000
  b =       7.5931    beta  =  90.0000
  c =       7.5931    gamma =  90.0000

  Initial cell volume =         437.781453 Angs**3

  Shrinking factors =      8     8     8

  Temperature of configuration =   0.00     K 

  Pressure of configuration =         0.000 GPa 

  Fractional coordinates of asymmetric unit :

--------------------------------------------------------------------------------
   No.  Atomic       x           y          z         Charge      Occupancy
        Label      (Frac)      (Frac)     (Frac)        (e)         (Frac)  
--------------------------------------------------------------------------------
      1 C     c    0.476040    0.519880    0.065020     0.00000    1.000000    
      2 C     c    0.411090    0.739130    0.305510     0.00000    1.000000    
      3 C     c    0.290580    0.259720    0.911110     0.00000    1.000000    
      4 C     c    0.105170    0.009130    0.614130     0.00000    1.000000    
      5 C     c    0.961210    0.853060    0.880860     0.00000    1.000000    
      6 C     c    0.796560    0.475320    0.580190     0.00000    1.000000    
      7 C     c    0.614850    0.415770    0.678910     0.00000    1.000000    
      8 C     c    0.790520    0.713470    0.331150     0.00000    1.000000    
      9 C     c    0.884070    0.246560    0.325780     0.00000    1.000000    
     10 C     c    0.686090    0.160460    0.139750     0.00000    1.000000    
     11 C     c    0.872090    0.039180    0.358240     0.00000    1.000000    
     12 C     c    0.951440    0.932080    0.517750     0.00000    1.000000    
     13 C     c    0.515810    0.057940    0.148300     0.00000    1.000000    
     14 C     c    0.552710    0.979840    0.494840     0.00000    1.000000    
     15 C     c    0.469570    0.328760    0.001070     0.00000    1.000000    
     16 C     c    0.950610    0.350420    0.486310     0.00000    1.000000    
     17 C     c    0.160540    0.418020    0.829760     0.00000    1.000000    
     18 C     c    0.833890    0.731170    0.814570     0.00000    1.000000    
     19 C     c    0.915720    0.948090    0.035330     0.00000    1.000000    
     20 C     c    0.145150    0.914300    0.792900     0.00000    1.000000    
     21 C     c    0.873300    0.645530    0.655420     0.00000    1.000000    
     22 C     c    0.891380    0.123190    0.725810     0.00000    1.000000    
     23 C     c    0.501770    0.601400    0.412890     0.00000    1.000000    
     24 C     c    0.653260    0.703130    0.881890     0.00000    1.000000    
     25 C     c    0.641300    0.587240    0.027650     0.00000    1.000000    
     26 C     c    0.791350    0.972820    0.719230     0.00000    1.000000    
     27 C     c    0.470590    0.465440    0.576360     0.00000    1.000000    
     28 C     c    0.359610    0.641510    0.137990     0.00000    1.000000    
     29 C     c    0.592450    0.951460    0.689430     0.00000    1.000000    
     30 C     c    0.715750    0.339670    0.233980     0.00000    1.000000    
     31 C     c    0.007790    0.192810    0.155260     0.00000    1.000000    
     32 C     c    0.970840    0.395170    0.892610     0.00000    1.000000    
     33 C     c    0.506640    0.785480    0.781750     0.00000    1.000000    
     34 C     c    0.847670    0.135630    0.031550     0.00000    1.000000    
     35 C     c    0.354850    0.174710    0.710580     0.00000    1.000000    
     36 C     c    0.114940    0.477260    0.445250     0.00000    1.000000    
     37 C     c    0.182890    0.160870    0.081400     0.00000    1.000000    
     38 C     c    0.282170    0.398600    0.516330     0.00000    1.000000    
     39 C     c    0.103810    0.672510    0.418880     0.00000    1.000000    
     40 C     c    0.934260    0.498170    0.036850     0.00000    1.000000    
     41 C     c    0.834280    0.245500    0.869130     0.00000    1.000000    
     42 C     c    0.372350    0.212340    0.168090     0.00000    1.000000    
     43 C     c    0.395760    0.116500    0.506280     0.00000    1.000000    
     44 C     c    0.982300    0.712500    0.264730     0.00000    1.000000    
     45 C     c    0.394730    0.276570    0.365780     0.00000    1.000000    
     46 C     c    0.555650    0.398780    0.337940     0.00000    1.000000    
     47 C     c    0.310670    0.762570    0.779360     0.00000    1.000000    
     48 C     c    0.932350    0.900510    0.211710     0.00000    1.000000    
     49 C     c    0.768410    0.485530    0.108470     0.00000    1.000000    
     50 C     c    0.255480    0.804170    0.413060     0.00000    1.000000    
     51 C     c    0.708130    0.550950    0.405570     0.00000    1.000000    
     52 C     c    0.957060    0.748020    0.531720     0.00000    1.000000    
     53 C     c    0.232340    0.604470    0.860020     0.00000    1.000000    
     54 C     c    0.042610    0.618420    0.110550     0.00000    1.000000    
     55 C     c    0.626280    0.286080    0.844660     0.00000    1.000000    
     56 C     c    0.439780    0.009990    0.967640     0.00000    1.000000    
     57 C     c    0.520990    0.912250    0.285010     0.00000    1.000000    
     58 C     c    0.206050    0.646490    0.042310     0.00000    1.000000    
     59 C     c    0.036510    0.209830    0.611530     0.00000    1.000000    
     60 C     c    0.257910    0.962370    0.491510     0.00000    1.000000    
     61 C     c    0.716210    0.894840    0.367440     0.00000    1.000000    
     62 C     c    0.243650    0.004280    0.953200     0.00000    1.000000    
     63 C     c    0.518010    0.099250    0.807560     0.00000    1.000000    
     64 C     c    0.200730    0.302710    0.668820     0.00000    1.000000    
--------------------------------------------------------------------------------


  Brillouin zone sampling points :

--------------------------------------------------------------------------------
  Point number          x          y          z            Weight
--------------------------------------------------------------------------------
        1           0.062500   0.062500   0.062500     0.00390625
        2           0.062500   0.062500   0.187500     0.00390625
        3           0.062500   0.062500   0.312500     0.00390625
        4           0.062500   0.062500   0.437500     0.00390625
        5           0.062500   0.062500   0.562500     0.00390625
        6           0.062500   0.062500   0.687500     0.00390625
        7           0.062500   0.062500   0.812500     0.00390625
        8           0.062500   0.062500   0.937500     0.00390625
        9           0.062500   0.187500   0.062500     0.00390625
       10           0.062500   0.187500   0.187500     0.00390625
       11           0.062500   0.187500   0.312500     0.00390625
       12           0.062500   0.187500   0.437500     0.00390625
       13           0.062500   0.187500   0.562500     0.00390625
       14           0.062500   0.187500   0.687500     0.00390625
       15           0.062500   0.187500   0.812500     0.00390625
       16           0.062500   0.187500   0.937500     0.00390625
       17           0.062500   0.312500   0.062500     0.00390625
       18           0.062500   0.312500   0.187500     0.00390625
       19           0.062500   0.312500   0.312500     0.00390625
       20           0.062500   0.312500   0.437500     0.00390625
       21           0.062500   0.312500   0.562500     0.00390625
       22           0.062500   0.312500   0.687500     0.00390625
       23           0.062500   0.312500   0.812500     0.00390625
       24           0.062500   0.312500   0.937500     0.00390625
       25           0.062500   0.437500   0.062500     0.00390625
       26           0.062500   0.437500   0.187500     0.00390625
       27           0.062500   0.437500   0.312500     0.00390625
       28           0.062500   0.437500   0.437500     0.00390625
       29           0.062500   0.437500   0.562500     0.00390625
       30           0.062500   0.437500   0.687500     0.00390625
       31           0.062500   0.437500   0.812500     0.00390625
       32           0.062500   0.437500   0.937500     0.00390625
       33           0.062500   0.562500   0.062500     0.00390625
       34           0.062500   0.562500   0.187500     0.00390625
       35           0.062500   0.562500   0.312500     0.00390625
       36           0.062500   0.562500   0.437500     0.00390625
       37           0.062500   0.562500   0.562500     0.00390625
       38           0.062500   0.562500   0.687500     0.00390625
       39           0.062500   0.562500   0.812500     0.00390625
       40           0.062500   0.562500   0.937500     0.00390625
       41           0.062500   0.687500   0.062500     0.00390625
       42           0.062500   0.687500   0.187500     0.00390625
       43           0.062500   0.687500   0.312500     0.00390625
       44           0.062500   0.687500   0.437500     0.00390625
       45           0.062500   0.687500   0.562500     0.00390625
       46           0.062500   0.687500   0.687500     0.00390625
       47           0.062500   0.687500   0.812500     0.00390625
       48           0.062500   0.687500   0.937500     0.00390625
       49           0.062500   0.812500   0.062500     0.00390625
       50           0.062500   0.812500   0.187500     0.00390625
       51           0.062500   0.812500   0.312500     0.00390625
       52           0.062500   0.812500   0.437500     0.00390625
       53           0.062500   0.812500   0.562500     0.00390625
       54           0.062500   0.812500   0.687500     0.00390625
       55           0.062500   0.812500   0.812500     0.00390625
       56           0.062500   0.812500   0.937500     0.00390625
       57           0.062500   0.937500   0.062500     0.00390625
       58           0.062500   0.937500   0.187500     0.00390625
       59           0.062500   0.937500   0.312500     0.00390625
       60           0.062500   0.937500   0.437500     0.00390625
       61           0.062500   0.937500   0.562500     0.00390625
       62           0.062500   0.937500   0.687500     0.00390625
       63           0.062500   0.937500   0.812500     0.00390625
       64           0.062500   0.937500   0.937500     0.00390625
       65           0.187500   0.062500   0.062500     0.00390625
       66           0.187500   0.062500   0.187500     0.00390625
       67           0.187500   0.062500   0.312500     0.00390625
       68           0.187500   0.062500   0.437500     0.00390625
       69           0.187500   0.062500   0.562500     0.00390625
       70           0.187500   0.062500   0.687500     0.00390625
       71           0.187500   0.062500   0.812500     0.00390625
       72           0.187500   0.062500   0.937500     0.00390625
       73           0.187500   0.187500   0.062500     0.00390625
       74           0.187500   0.187500   0.187500     0.00390625
       75           0.187500   0.187500   0.312500     0.00390625
       76           0.187500   0.187500   0.437500     0.00390625
       77           0.187500   0.187500   0.562500     0.00390625
       78           0.187500   0.187500   0.687500     0.00390625
       79           0.187500   0.187500   0.812500     0.00390625
       80           0.187500   0.187500   0.937500     0.00390625
       81           0.187500   0.312500   0.062500     0.00390625
       82           0.187500   0.312500   0.187500     0.00390625
       83           0.187500   0.312500   0.312500     0.00390625
       84           0.187500   0.312500   0.437500     0.00390625
       85           0.187500   0.312500   0.562500     0.00390625
       86           0.187500   0.312500   0.687500     0.00390625
       87           0.187500   0.312500   0.812500     0.00390625
       88           0.187500   0.312500   0.937500     0.00390625
       89           0.187500   0.437500   0.062500     0.00390625
       90           0.187500   0.437500   0.187500     0.00390625
       91           0.187500   0.437500   0.312500     0.00390625
       92           0.187500   0.437500   0.437500     0.00390625
       93           0.187500   0.437500   0.562500     0.00390625
       94           0.187500   0.437500   0.687500     0.00390625
       95           0.187500   0.437500   0.812500     0.00390625
       96           0.187500   0.437500   0.937500     0.00390625
       97           0.187500   0.562500   0.062500     0.00390625
       98           0.187500   0.562500   0.187500     0.00390625
       99           0.187500   0.562500   0.312500     0.00390625
      100           0.187500   0.562500   0.437500     0.00390625
      101           0.187500   0.562500   0.562500     0.00390625
      102           0.187500   0.562500   0.687500     0.00390625
      103           0.187500   0.562500   0.812500     0.00390625
      104           0.187500   0.562500   0.937500     0.00390625
      105           0.187500   0.687500   0.062500     0.00390625
      106           0.187500   0.687500   0.187500     0.00390625
      107           0.187500   0.687500   0.312500     0.00390625
      108           0.187500   0.687500   0.437500     0.00390625
      109           0.187500   0.687500   0.562500     0.00390625
      110           0.187500   0.687500   0.687500     0.00390625
      111           0.187500   0.687500   0.812500     0.00390625
      112           0.187500   0.687500   0.937500     0.00390625
      113           0.187500   0.812500   0.062500     0.00390625
      114           0.187500   0.812500   0.187500     0.00390625
      115           0.187500   0.812500   0.312500     0.00390625
      116           0.187500   0.812500   0.437500     0.00390625
      117           0.187500   0.812500   0.562500     0.00390625
      118           0.187500   0.812500   0.687500     0.00390625
      119           0.187500   0.812500   0.812500     0.00390625
      120           0.187500   0.812500   0.937500     0.00390625
      121           0.187500   0.937500   0.062500     0.00390625
      122           0.187500   0.937500   0.187500     0.00390625
      123           0.187500   0.937500   0.312500     0.00390625
      124           0.187500   0.937500   0.437500     0.00390625
      125           0.187500   0.937500   0.562500     0.00390625
      126           0.187500   0.937500   0.687500     0.00390625
      127           0.187500   0.937500   0.812500     0.00390625
      128           0.187500   0.937500   0.937500     0.00390625
      129           0.312500   0.062500   0.062500     0.00390625
      130           0.312500   0.062500   0.187500     0.00390625
      131           0.312500   0.062500   0.312500     0.00390625
      132           0.312500   0.062500   0.437500     0.00390625
      133           0.312500   0.062500   0.562500     0.00390625
      134           0.312500   0.062500   0.687500     0.00390625
      135           0.312500   0.062500   0.812500     0.00390625
      136           0.312500   0.062500   0.937500     0.00390625
      137           0.312500   0.187500   0.062500     0.00390625
      138           0.312500   0.187500   0.187500     0.00390625
      139           0.312500   0.187500   0.312500     0.00390625
      140           0.312500   0.187500   0.437500     0.00390625
      141           0.312500   0.187500   0.562500     0.00390625
      142           0.312500   0.187500   0.687500     0.00390625
      143           0.312500   0.187500   0.812500     0.00390625
      144           0.312500   0.187500   0.937500     0.00390625
      145           0.312500   0.312500   0.062500     0.00390625
      146           0.312500   0.312500   0.187500     0.00390625
      147           0.312500   0.312500   0.312500     0.00390625
      148           0.312500   0.312500   0.437500     0.00390625
      149           0.312500   0.312500   0.562500     0.00390625
      150           0.312500   0.312500   0.687500     0.00390625
      151           0.312500   0.312500   0.812500     0.00390625
      152           0.312500   0.312500   0.937500     0.00390625
      153           0.312500   0.437500   0.062500     0.00390625
      154           0.312500   0.437500   0.187500     0.00390625
      155           0.312500   0.437500   0.312500     0.00390625
      156           0.312500   0.437500   0.437500     0.00390625
      157           0.312500   0.437500   0.562500     0.00390625
      158           0.312500   0.437500   0.687500     0.00390625
      159           0.312500   0.437500   0.812500     0.00390625
      160           0.312500   0.437500   0.937500     0.00390625
      161           0.312500   0.562500   0.062500     0.00390625
      162           0.312500   0.562500   0.187500     0.00390625
      163           0.312500   0.562500   0.312500     0.00390625
      164           0.312500   0.562500   0.437500     0.00390625
      165           0.312500   0.562500   0.562500     0.00390625
      166           0.312500   0.562500   0.687500     0.00390625
      167           0.312500   0.562500   0.812500     0.00390625
      168           0.312500   0.562500   0.937500     0.00390625
      169           0.312500   0.687500   0.062500     0.00390625
      170           0.312500   0.687500   0.187500     0.00390625
      171           0.312500   0.687500   0.312500     0.00390625
      172           0.312500   0.687500   0.437500     0.00390625
      173           0.312500   0.687500   0.562500     0.00390625
      174           0.312500   0.687500   0.687500     0.00390625
      175           0.312500   0.687500   0.812500     0.00390625
      176           0.312500   0.687500   0.937500     0.00390625
      177           0.312500   0.812500   0.062500     0.00390625
      178           0.312500   0.812500   0.187500     0.00390625
      179           0.312500   0.812500   0.312500     0.00390625
      180           0.312500   0.812500   0.437500     0.00390625
      181           0.312500   0.812500   0.562500     0.00390625
      182           0.312500   0.812500   0.687500     0.00390625
      183           0.312500   0.812500   0.812500     0.00390625
      184           0.312500   0.812500   0.937500     0.00390625
      185           0.312500   0.937500   0.062500     0.00390625
      186           0.312500   0.937500   0.187500     0.00390625
      187           0.312500   0.937500   0.312500     0.00390625
      188           0.312500   0.937500   0.437500     0.00390625
      189           0.312500   0.937500   0.562500     0.00390625
      190           0.312500   0.937500   0.687500     0.00390625
      191           0.312500   0.937500   0.812500     0.00390625
      192           0.312500   0.937500   0.937500     0.00390625
      193           0.437500   0.062500   0.062500     0.00390625
      194           0.437500   0.062500   0.187500     0.00390625
      195           0.437500   0.062500   0.312500     0.00390625
      196           0.437500   0.062500   0.437500     0.00390625
      197           0.437500   0.062500   0.562500     0.00390625
      198           0.437500   0.062500   0.687500     0.00390625
      199           0.437500   0.062500   0.812500     0.00390625
      200           0.437500   0.062500   0.937500     0.00390625
      201           0.437500   0.187500   0.062500     0.00390625
      202           0.437500   0.187500   0.187500     0.00390625
      203           0.437500   0.187500   0.312500     0.00390625
      204           0.437500   0.187500   0.437500     0.00390625
      205           0.437500   0.187500   0.562500     0.00390625
      206           0.437500   0.187500   0.687500     0.00390625
      207           0.437500   0.187500   0.812500     0.00390625
      208           0.437500   0.187500   0.937500     0.00390625
      209           0.437500   0.312500   0.062500     0.00390625
      210           0.437500   0.312500   0.187500     0.00390625
      211           0.437500   0.312500   0.312500     0.00390625
      212           0.437500   0.312500   0.437500     0.00390625
      213           0.437500   0.312500   0.562500     0.00390625
      214           0.437500   0.312500   0.687500     0.00390625
      215           0.437500   0.312500   0.812500     0.00390625
      216           0.437500   0.312500   0.937500     0.00390625
      217           0.437500   0.437500   0.062500     0.00390625
      218           0.437500   0.437500   0.187500     0.00390625
      219           0.437500   0.437500   0.312500     0.00390625
      220           0.437500   0.437500   0.437500     0.00390625
      221           0.437500   0.437500   0.562500     0.00390625
      222           0.437500   0.437500   0.687500     0.00390625
      223           0.437500   0.437500   0.812500     0.00390625
      224           0.437500   0.437500   0.937500     0.00390625
      225           0.437500   0.562500   0.062500     0.00390625
      226           0.437500   0.562500   0.187500     0.00390625
      227           0.437500   0.562500   0.312500     0.00390625
      228           0.437500   0.562500   0.437500     0.00390625
      229           0.437500   0.562500   0.562500     0.00390625
      230           0.437500   0.562500   0.687500     0.00390625
      231           0.437500   0.562500   0.812500     0.00390625
      232           0.437500   0.562500   0.937500     0.00390625
      233           0.437500   0.687500   0.062500     0.00390625
      234           0.437500   0.687500   0.187500     0.00390625
      235           0.437500   0.687500   0.312500     0.00390625
      236           0.437500   0.687500   0.437500     0.00390625
      237           0.437500   0.687500   0.562500     0.00390625
      238           0.437500   0.687500   0.687500     0.00390625
      239           0.437500   0.687500   0.812500     0.00390625
      240           0.437500   0.687500   0.937500     0.00390625
      241           0.437500   0.812500   0.062500     0.00390625
      242           0.437500   0.812500   0.187500     0.00390625
      243           0.437500   0.812500   0.312500     0.00390625
      244           0.437500   0.812500   0.437500     0.00390625
      245           0.437500   0.812500   0.562500     0.00390625
      246           0.437500   0.812500   0.687500     0.00390625
      247           0.437500   0.812500   0.812500     0.00390625
      248           0.437500   0.812500   0.937500     0.00390625
      249           0.437500   0.937500   0.062500     0.00390625
      250           0.437500   0.937500   0.187500     0.00390625
      251           0.437500   0.937500   0.312500     0.00390625
      252           0.437500   0.937500   0.437500     0.00390625
      253           0.437500   0.937500   0.562500     0.00390625
      254           0.437500   0.937500   0.687500     0.00390625
      255           0.437500   0.937500   0.812500     0.00390625
      256           0.437500   0.937500   0.937500     0.00390625
--------------------------------------------------------------------------------


********************************************************************************
*  General input information                                                   *
********************************************************************************

  Species output for all configurations : 

--------------------------------------------------------------------------------
  Species    Type    Atomic    Atomic    Charge       Radii (Angs)     Library
                     Number     Mass       (e)     Cova   Ionic  VDW   Symbol
--------------------------------------------------------------------------------
    C        Core        6      12.01   0.000000   0.770  0.000  1.530          
--------------------------------------------------------------------------------


  Lattice summation method               =    Ewald          (3-D)
                                         =    Parry          (2-D)
                                         =    Saunders et al (1-D)
  Accuracy factor for lattice sums       =   12.000


  Analytic derivatives to be used

  Time limit = Infinity

  Maximum range for interatomic potentials =    100000.000000 Angstroms

  Brenner et al 2002 potential to be used with explicit splines for P


********************************************************************************
*  Output for configuration   1                                                *
********************************************************************************


  Components of energy : 

--------------------------------------------------------------------------------
  Interatomic potentials     =           0.00000000 eV    
  Brenner potentials         =        -421.97997685 eV    
  Monopole - monopole (real) =           0.00000000 eV    
  Monopole - monopole (recip)=           0.00000000 eV    
  Monopole - monopole (total)=           0.00000000 eV    
--------------------------------------------------------------------------------
  Total lattice energy       =        -421.97997685 eV    
--------------------------------------------------------------------------------
  Total lattice energy       =          -40714.6172 kJ/(mole unit cells)
--------------------------------------------------------------------------------


  Elastic Constant Matrix: (Units=GPa)

-------------------------------------------------------------------------------
  Indices      1         2         3         4         5         6    
-------------------------------------------------------------------------------
       1    555.2031  214.6510  185.2823   16.2805  -33.1309   27.5935
       2    214.6510  403.1498  185.5452    1.7720   13.7658   15.4193
       3    185.2823  185.5452  419.1374    8.4033  -44.3614  -32.3715
       4     16.2805    1.7720    8.4033  149.8225  -28.3211  -14.4240
       5    -33.1309   13.7658  -44.3614  -28.3211  138.4113   14.7542
       6     27.5935   15.4193  -32.3715  -14.4240   14.7542  140.2832
-------------------------------------------------------------------------------


  Elastic Compliance Matrix: (Units=1/GPa)

-------------------------------------------------------------------------------
  Indices      1         2         3         4         5         6    
-------------------------------------------------------------------------------
       1    0.002471 -0.001021 -0.000628 -0.000180  0.000518 -0.000592
       2   -0.001021  0.003679 -0.001314 -0.000088 -0.001006 -0.000410
       3   -0.000628 -0.001314  0.003423  0.000176  0.001010  0.000970
       4   -0.000180 -0.000088  0.000176  0.007011  0.001386  0.000661
       5    0.000518 -0.001006  0.001010  0.001386  0.008106 -0.000468
       6   -0.000592 -0.000410  0.000970  0.000661 -0.000468  0.007631
-------------------------------------------------------------------------------

  Mechanical properties :

-------------------------------------------------------------------------------
  Convention :                    Reuss         Voigt         Hill
-------------------------------------------------------------------------------
  Bulk  Modulus (GPa)     =     274.07673     283.16080     278.61877
  Shear Modulus (GPa)     =     126.70469     138.50419     132.60444
-------------------------------------------------------------------------------
  Velocity S-wave (km/s)  =       6.59228       6.89240       6.74401
  Velocity P-wave (km/s)  =      12.32676      12.66732      12.49820
-------------------------------------------------------------------------------
  Compressibility (1/GPa) =    0.00364861
-------------------------------------------------------------------------------
  Stress axis :                     x             y             z
-------------------------------------------------------------------------------
  Youngs Moduli (GPa)     =     404.70665     271.80348     292.13565
-------------------------------------------------------------------------------
  Poissons Ratio (x)      =                     0.27753       0.18332
  Poissons Ratio (y)      =       0.41323                     0.38377
  Poissons Ratio (z)      =       0.25396       0.35706
-------------------------------------------------------------------------------


  Piezoelectric Strain Matrix: (Units=C/m**2)

-------------------------------------------------------------------------------
  Indices      1         2         3         4         5         6    
-------------------------------------------------------------------------------
       x    -0.00000  -0.00000  -0.00000  -0.00000  -0.00000  -0.00000
       y    -0.00000  -0.00000  -0.00000  -0.00000  -0.00000  -0.00000
       z    -0.00000  -0.00000  -0.00000  -0.00000  -0.00000  -0.00000
-------------------------------------------------------------------------------


  Piezoelectric Stress Matrix: (Units=10**-11 C/N)

-------------------------------------------------------------------------------
  Indices      1         2         3         4         5         6    
-------------------------------------------------------------------------------
       x     0.00000   0.00000   0.00000   0.00000   0.00000   0.00000
       y     0.00000   0.00000   0.00000   0.00000   0.00000   0.00000
       z     0.00000   0.00000   0.00000   0.00000   0.00000   0.00000
-------------------------------------------------------------------------------


  Static dielectric constant tensor : 

-------------------------------------------------------------------------------
              x         y         z
-------------------------------------------------------------------------------
       x     1.00000   0.00000   0.00000
       y     0.00000   1.00000   0.00000
       z     0.00000   0.00000   1.00000
--------------------------------------------------------------------------------

  Static refractive indices : 

-------------------------------------------------------------------------------
    1 =    1.00000      2 =    1.00000      3 =    1.00000
-------------------------------------------------------------------------------


  Phonon Calculation : 

  Number of k points for this configuration =      256

--------------------------------------------------------------------------------
  K point      1 =   0.062500  0.062500  0.062500  Weight =    0.004
--------------------------------------------------------------------------------

  Frequencies (cm-1) [NB: Negative implies an imaginary mode]:

   27.12   35.37   58.66  145.44  188.54  210.45  224.24  232.62  244.82
  249.73  258.41  272.44  277.71  286.06  299.02  301.27  314.11  318.77
  333.53  335.01  344.05  353.70  360.01  367.77  377.51  388.78  393.97
  401.88  411.23  416.63  426.89  432.50  439.19  440.68  450.90  454.43
  465.26  471.97  479.14  490.15  498.49  505.65  514.57  523.67  532.48
  536.61  541.03  554.31  562.63  568.71  574.22  581.83  594.76  596.01
  601.74  610.04  610.45  626.02  629.38  639.79  645.28  650.97  662.14
  668.39  674.06  687.24  694.05  698.28  710.99  714.12  721.36  731.58
  737.10  748.13  759.67  766.55  778.93  782.28  789.06  793.31  802.87
  812.26  819.13  825.81  830.41  839.38  848.84  861.04  870.49  880.16
  885.89  893.68  904.12  914.41  927.40  933.05  941.97  946.04  956.98
  964.93  974.28  984.57  993.34 1003.92 1005.95 1012.11 1020.89 1028.92
 1034.41 1038.63 1044.40 1058.26 1063.58 1077.59 1082.47 1090.95 1100.36
 1106.25 1112.41 1117.46 1128.28 1135.02 1149.36 1161.63 1174.24 1180.10
 1185.57 1193.95 1198.71 1209.12 1220.69 1227.44 1240.51 1255.33 1263.95
 1274.78 1281.60 1291.42 1304.63 1308.67 1311.42 1326.56 1334.93 1338.56
 1352.65 1358.78 1372.91 1376.35 1386.09 1402.74 1412.94 1429.21 1440.86
 1447.99 1457.27 1464.01 1472.58 1488.29 1500.44 1508.78 1527.91 1552.22
 1566.34 1569.80 1587.13 1594.16 1604.17 1606.81 1624.01 1681.78 1718.95
 1772.55 1781.63 1794.50 1829.26 1883.72 1897.43 1927.72 1936.16 1970.95
 1975.12 2073.21 2119.02 2154.50 2346.34 2508.80 2544.23 2580.91 2931.82
 2979.90 3185.70 3232.96


--------------------------------------------------------------------------------
  K point      2 =   0.062500  0.062500  0.187500  Weight =    0.004
--------------------------------------------------------------------------------

  Frequencies (cm-1) [NB: Negative implies an imaginary mode]:

   59.13   67.65   99.81  145.38  183.11  208.58  222.24  225.39  243.59
  248.48  258.54  265.54  271.00  286.81  299.75  304.09  308.07  318.77
  332.09  335.67  347.63  349.88  364.55  375.74  382.17  389.50  393.80
  400.36  407.76  417.88  423.57  430.23  434.20  439.51  452.22  458.56
  463.24  478.30  482.84  493.22  498.57  505.91  516.80  521.23  531.85
  538.21  542.62  549.29  559.64  568.02  576.97  582.16  589.31  594.99
  600.97  607.36  612.21  624.72  630.89  638.76  644.28  653.71  658.11
  664.66  674.01  686.73  692.53  698.09  710.37  716.72  724.34  727.77
  737.14  749.47  757.34  766.59  777.71  783.54  791.50  794.95  804.25
  810.10  817.69  824.43  832.57  846.07  848.49  860.24  870.52  878.46
  885.10  895.54  904.18  914.36  928.24  934.44  944.30  951.09  956.44
  966.32  974.26  981.42  991.22 1001.26 1006.94 1009.70 1022.71 1025.60
 1036.63 1039.56 1042.78 1058.23 1067.27 1077.91 1080.75 1088.02 1099.95
 1105.59 1112.65 1120.04 1130.19 1136.02 1145.84 1161.63 1174.20 1181.40
 1184.53 1194.81 1198.42 1208.54 1220.95 1227.10 1240.20 1255.06 1263.83
 1275.20 1280.53 1292.70 1303.21 1309.88 1311.57 1325.48 1334.19 1338.50
 1350.35 1360.48 1374.85 1377.40 1385.38 1403.36 1414.02 1428.35 1442.03
 1445.59 1456.24 1465.22 1472.77 1487.86 1501.41 1508.38 1527.87 1552.09
 1566.77 1570.26 1586.83 1592.39 1604.82 1607.64 1624.03 1681.47 1718.85
 1772.54 1781.69 1794.51 1829.27 1883.71 1897.51 1928.33 1936.18 1970.38
 1975.10 2073.21 2119.02 2154.50 2346.34 2508.80 2544.24 2580.91 2931.82
 2979.90 3185.70 3232.96


--------------------------------------------------------------------------------
  K point      3 =   0.062500  0.062500  0.312500  Weight =    0.004
--------------------------------------------------------------------------------

  Frequencies (cm-1) [NB: Negative implies an imaginary mode]:

   89.15   98.13  133.47  162.86  175.13  201.57  214.94  224.31  235.14
  244.50  248.92  263.91  270.46  284.88  293.39  307.22  311.35  318.33
  324.89  337.47  351.92  354.23  365.79  374.01  378.63  391.84  397.23
  398.99  405.63  417.54  424.98  429.22  434.38  439.18  454.83  460.05
  461.93  475.73  490.47  494.60  497.95  510.99  514.44  525.35  533.75
  538.50  543.56  546.84  556.61  567.80  576.29  579.68  583.24  592.96
  597.54  609.80  611.45  621.81  630.29  636.41  643.31  651.33  656.56
  663.70  674.27  686.21  690.49  698.07  709.80  715.54  725.53  731.97
  736.50  752.01  757.75  767.08  776.06  782.12  791.52  797.37  802.95
  809.17  814.75  829.34  836.37  846.64  851.12  857.87  870.50  881.23
  886.15  894.04  905.22  913.37  927.49  937.38  948.75  953.57  958.79
  965.97  972.73  982.83  986.01  996.31 1006.98 1010.53 1019.83 1026.45
 1037.16 1041.28 1043.17 1056.46 1069.72 1074.26 1083.54 1086.44 1100.49
 1104.62 1111.40 1120.16 1135.41 1139.01 1142.59 1160.06 1172.80 1180.95
 1184.30 1193.60 1197.85 1210.21 1223.06 1226.56 1240.33 1253.64 1264.56
 1276.11 1279.41 1292.68 1301.65 1308.33 1313.71 1323.45 1334.07 1337.89
 1348.80 1361.92 1374.37 1381.57 1385.55 1403.71 1416.00 1427.82 1441.72
 1443.05 1454.68 1466.04 1473.94 1487.31 1502.58 1508.04 1527.85 1551.68
 1567.57 1570.76 1586.10 1590.72 1604.94 1609.12 1624.10 1681.00 1718.70
 1772.53 1781.78 1794.52 1829.27 1883.67 1897.62 1929.22 1936.24 1969.54
 1975.06 2073.21 2119.02 2154.50 2346.35 2508.80 2544.27 2580.90 2931.82
 2979.89 3185.70 3232.96


--------------------------------------------------------------------------------
  K point      4 =   0.062500  0.062500  0.437500  Weight =    0.004
--------------------------------------------------------------------------------

  Frequencies (cm-1) [NB: Negative implies an imaginary mode]:

  103.02  125.91  145.52  163.25  185.65  201.07  210.26  221.45  225.35
  236.03  249.74  266.45  273.72  282.99  287.87  303.17  311.56  318.36
  325.55  338.29  349.84  357.17  361.36  370.85  379.98  388.00  392.32
  400.07  411.66  419.68  425.18  431.13  435.08  443.91  452.42  457.76
  467.58  476.46  487.65  494.63  502.19  511.34  515.66  524.97  532.99
  535.31  546.57  551.92  555.69  565.91  571.92  579.56  583.94  589.73
  596.95  605.14  612.39  618.91  630.09  635.54  639.42  647.55  660.44
  663.90  672.59  685.26  689.25  698.13  710.22  716.43  724.70  733.89
  740.84  753.94  758.21  769.13  771.95  782.46  789.91  798.79  803.46
  808.87  811.26  832.63  834.43  847.75  853.01  857.79  872.31  883.96
  887.07  895.54  905.13  910.70  926.42  939.05  949.82  955.16  962.70
  964.99  970.23  980.80  985.02  995.58 1005.29 1013.39 1018.05 1025.32
 1036.68 1040.62 1047.84 1055.05 1068.05 1072.94 1084.77 1087.87 1100.06
 1104.14 1110.04 1119.90 1136.23 1142.96 1146.27 1155.84 1169.87 1180.30
 1184.65 1191.23 1197.79 1212.00 1224.44 1228.25 1240.89 1251.72 1266.28
 1276.75 1278.47 1290.13 1301.32 1306.92 1315.06 1322.04 1334.54 1337.11
 1348.18 1363.00 1373.22 1382.37 1389.13 1403.44 1417.67 1428.35 1438.34
 1442.69 1453.82 1466.20 1475.46 1486.80 1503.17 1508.01 1527.90 1551.29
 1568.10 1571.15 1585.20 1590.08 1604.92 1610.09 1624.18 1680.66 1718.59
 1772.52 1781.85 1794.54 1829.26 1883.62 1897.71 1929.87 1936.30 1968.91
 1975.04 2073.21 2119.02 2154.50 2346.35 2508.80 2544.29 2580.89 2931.82
 2979.89 3185.70 3232.96


--------------------------------------------------------------------------------
  K point      5 =   0.062500  0.062500  0.562500  Weight =    0.004
--------------------------------------------------------------------------------

  Frequencies (cm-1) [NB: Negative implies an imaginary mode]:

   98.83  138.09  144.95  158.41  184.35  204.47  212.34  217.69  222.93
  237.83  253.44  263.49  275.98  283.77  288.45  292.11  311.61  321.72
  330.24  337.48  350.53  355.64  361.20  369.89  380.56  386.67  393.62
  398.79  411.56  419.59  424.60  432.03  434.22  443.71  452.49  460.09
  468.63  476.81  487.35  493.84  503.41  510.18  515.03  527.73  530.18
  538.81  544.83  547.49  558.14  564.91  571.06  577.03  586.41  594.00
  600.20  605.44  611.34  618.02  623.61  635.31  639.47  650.74  658.32
  663.67  670.40  684.42  689.66  697.59  710.68  717.80  727.35  735.52
  743.79  753.20  761.29  766.86  771.90  782.52  789.09  797.86  802.51
  808.51  809.68  828.65  835.51  846.24  855.99  860.00  871.92  885.30
  887.87  896.92  905.32  909.08  928.64  937.12  949.96  954.32  962.15
  963.86  968.44  980.80  984.73  997.71 1002.53 1014.60 1017.52 1026.03
 1035.88 1042.32 1051.18 1053.29 1065.11 1074.26 1083.64 1091.76 1097.54
 1103.99 1111.79 1119.01 1135.83 1143.43 1148.38 1154.88 1168.75 1179.82
 1184.90 1189.44 1198.33 1211.39 1225.28 1230.47 1241.42 1251.25 1266.97
 1276.60 1278.39 1288.20 1301.62 1306.58 1314.51 1321.95 1334.68 1336.83
 1348.34 1363.98 1372.51 1382.02 1390.45 1403.34 1418.28 1428.39 1437.03
 1442.41 1453.90 1466.88 1475.53 1486.41 1503.40 1508.15 1527.80 1551.34
 1567.68 1571.40 1584.93 1590.39 1605.03 1609.97 1624.24 1680.65 1718.59
 1772.53 1781.86 1794.54 1829.25 1883.60 1897.72 1929.88 1936.31 1968.92
 1975.03 2073.21 2119.02 2154.50 2346.35 2508.80 2544.29 2580.89 2931.82
 2979.89 3185.70 3232.96


--------------------------------------------------------------------------------
  K point      6 =   0.062500  0.062500  0.687500  Weight =    0.004
--------------------------------------------------------------------------------

  Frequencies (cm-1) [NB: Negative implies an imaginary mode]:

   82.24  107.44  144.61  163.50  173.17  205.04  213.67  215.54  232.30
  238.75  254.12  263.56  277.19  288.79  292.74  295.05  313.09  323.46
  329.20  337.05  350.63  358.01  359.72  368.31  376.40  385.22  396.69
  403.49  411.36  419.91  424.38  429.29  433.89  439.54  453.17  461.21
  465.88  474.15  489.98  494.35  501.91  508.77  515.05  525.34  531.55
  537.68  543.52  549.97  554.97  565.62  572.47  578.34  590.56  594.25
  599.83  609.09  616.34  619.99  623.96  634.17  642.76  648.08  656.97
  664.63  667.55  686.84  691.48  695.29  711.46  717.64  731.08  735.93
  741.85  755.66  759.11  768.28  772.48  780.50  790.00  794.06  799.36
  809.77  811.63  829.19  834.84  843.16  853.84  860.90  872.83  883.24
  889.35  896.44  903.38  913.12  929.59  935.64  946.22  954.98  957.05
  961.99  969.20  982.51  988.05  995.32 1003.81 1013.42 1017.88 1029.09
 1035.62 1044.46 1049.72 1053.10 1063.40 1076.20 1083.14 1094.39 1096.50
 1102.98 1116.21 1117.53 1133.19 1141.61 1144.60 1159.56 1170.31 1180.00
 1184.64 1189.48 1199.22 1209.21 1225.69 1230.57 1241.39 1252.88 1265.20
 1276.61 1279.04 1289.35 1302.25 1306.83 1312.19 1323.51 1334.17 1337.12
 1349.13 1364.43 1372.76 1381.04 1388.12 1403.63 1417.44 1427.50 1438.51
 1443.21 1454.60 1468.19 1473.48 1486.53 1503.18 1508.39 1527.59 1551.77
 1566.77 1571.17 1585.54 1591.38 1605.23 1608.82 1624.24 1680.97 1718.69
 1772.54 1781.80 1794.53 1829.24 1883.61 1897.65 1929.24 1936.26 1969.55
 1975.05 2073.21 2119.02 2154.50 2346.35 2508.80 2544.27 2580.90 2931.82
 2979.89 3185.70 3232.96


--------------------------------------------------------------------------------
  K point      7 =   0.062500  0.062500  0.812500  Weight =    0.004
--------------------------------------------------------------------------------

  Frequencies (cm-1) [NB: Negative implies an imaginary mode]:

   59.35   70.57  107.93  154.66  178.28  206.87  217.09  222.46  238.59
  245.43  258.39  269.20  281.63  289.07  297.32  302.48  309.35  324.97
  330.96  332.28  346.85  351.72  364.25  368.75  373.28  384.02  395.56
  403.48  412.71  418.47  427.80  430.12  435.15  439.57  451.14  461.66
  465.65  476.97  481.15  492.12  498.83  505.97  515.47  523.07  529.36
  538.87  544.78  551.64  556.32  570.69  573.55  580.05  588.03  595.77
  603.73  608.02  617.39  626.74  629.49  635.70  638.62  647.34  660.17
  663.77  671.89  688.93  693.02  696.94  710.47  712.57  729.08  735.13
  740.52  753.82  761.83  768.73  774.26  779.63  787.89  790.59  802.21
  809.25  816.01  830.71  831.90  839.89  850.40  861.21  871.14  882.93
  889.14  894.56  904.22  915.66  925.75  935.80  943.67  947.79  956.36
  963.35  971.10  984.91  989.40  999.83 1004.75 1012.43 1018.72 1029.20
 1036.22 1042.63 1049.64 1053.56 1061.52 1076.87 1084.32 1094.59 1098.56
 1102.12 1115.66 1119.95 1127.94 1138.23 1146.26 1161.58 1173.07 1178.64
 1185.15 1191.53 1199.66 1207.80 1224.81 1229.15 1241.04 1254.78 1263.53
 1275.95 1280.71 1290.78 1304.16 1306.89 1309.86 1326.04 1334.05 1337.20
 1350.36 1363.79 1373.67 1377.56 1386.55 1403.39 1415.19 1428.09 1439.75
 1445.39 1455.66 1468.50 1471.23 1487.21 1502.14 1508.72 1527.59 1552.11
 1566.18 1570.51 1586.42 1592.93 1605.12 1607.32 1624.17 1681.43 1718.83
 1772.55 1781.70 1794.52 1829.24 1883.64 1897.54 1928.35 1936.20 1970.39
 1975.08 2073.21 2119.02 2154.50 2346.34 2508.80 2544.24 2580.90 2931.82
 2979.90 3185.70 3232.96


--------------------------------------------------------------------------------
  K point      8 =   0.062500  0.062500  0.937500  Weight =    0.004
--------------------------------------------------------------------------------

  Frequencies (cm-1) [NB: Negative implies an imaginary mode]:

   35.24   35.74   60.15  148.80  188.47  206.30  224.22  229.62  243.22
  253.31  254.54  275.53  280.11  289.20  296.75  302.70  311.68  324.55
  330.14  333.87  345.92  351.47  360.23  366.60  372.60  387.40  395.87
  403.47  411.50  415.89  427.97  431.37  438.92  443.99  449.87  459.21
  462.43  472.17  479.66  490.26  498.82  502.87  513.46  525.93  530.03
  536.31  545.71  553.67  560.71  569.00  575.15  580.41  590.85  597.56
  604.86  606.74  616.90  623.97  632.32  635.58  644.16  648.36  661.52
  667.56  676.17  689.19  692.72  699.65  706.69  712.91  723.82  733.24
  740.27  749.23  761.68  770.18  776.09  780.81  785.95  792.65  801.80
  810.45  819.45  829.41  831.14  837.04  848.38  861.31  870.64  882.21
  886.74  893.58  904.12  915.39  925.92  933.84  941.17  945.18  956.75
  963.64  973.93  985.17  992.50 1004.53 1005.42 1012.13 1019.01 1030.04
 1034.60 1040.07 1047.35 1055.45 1061.55 1077.51 1084.03 1093.41 1099.79
 1104.85 1114.08 1116.95 1127.59 1135.83 1149.29 1161.67 1174.69 1178.10
 1185.54 1193.25 1199.00 1208.71 1222.66 1227.84 1240.81 1255.34 1263.60
 1275.14 1281.90 1290.79 1305.49 1307.22 1310.17 1327.01 1334.98 1337.60
 1352.05 1361.06 1373.02 1375.79 1386.44 1402.79 1413.34 1429.15 1440.15
 1447.75 1456.77 1465.45 1472.04 1488.01 1500.81 1508.92 1527.79 1552.20
 1566.15 1569.88 1587.00 1594.35 1604.23 1606.73 1624.06 1681.77 1718.94
 1772.56 1781.63 1794.50 1829.25 1883.69 1897.45 1927.72 1936.17 1970.95
 1975.11 2073.21 2119.02 2154.50 2346.34 2508.80 2544.23 2580.91 2931.82
 2979.90 3185.70 3232.96


--------------------------------------------------------------------------------
  K point      9 =   0.062500  0.187500  0.062500  Weight =    0.004
--------------------------------------------------------------------------------

  Frequencies (cm-1) [NB: Negative implies an imaginary mode]:

   52.54   68.95  104.80  153.61  179.54  205.75  222.29  232.73  243.14
  246.21  255.46  268.08  276.10  282.63  293.64  307.17  314.30  318.25
  328.00  336.68  346.40  354.04  361.02  364.85  377.01  386.10  391.37
  401.67  406.86  418.53  423.55  437.20  439.62  442.07  449.38  456.58
  467.30  471.44  481.10  488.50  498.52  502.56  516.58  526.16  534.25
  537.00  546.05  550.25  560.93  564.02  568.34  579.67  589.86  596.42
  602.72  606.71  609.97  628.68  634.86  641.25  646.55  656.08  663.29
  672.32  678.21  692.33  694.67  701.00  708.38  714.03  721.37  731.49
  734.59  748.74  755.08  764.14  774.99  780.60  789.70  793.29  803.99
  813.62  817.71  824.39  832.32  840.18  850.23  857.59  870.58  882.03
  887.16  897.31  905.88  912.56  923.83  933.05  938.80  950.76  957.22
  963.55  978.62  985.08  990.39 1000.68 1008.04 1010.31 1020.12 1029.90
 1034.59 1037.97 1041.77 1058.25 1066.49 1075.21 1082.86 1093.93 1099.95
 1104.90 1114.27 1117.56 1127.45 1134.96 1149.11 1160.36 1171.57 1179.31
 1187.33 1191.03 1202.25 1208.96 1219.47 1231.75 1241.77 1254.88 1263.08
 1275.54 1281.32 1293.22 1301.84 1305.49 1313.53 1325.99 1333.99 1339.75
 1352.78 1361.01 1371.56 1376.85 1386.01 1401.88 1415.11 1428.41 1439.02
 1447.40 1456.25 1464.60 1474.91 1488.66 1500.36 1508.99 1527.05 1552.23
 1565.91 1570.58 1587.79 1593.44 1603.87 1606.82 1624.10 1681.77 1718.97
 1772.55 1781.59 1794.49 1829.28 1883.81 1897.26 1927.72 1936.18 1970.94
 1975.18 2073.20 2119.02 2154.50 2346.34 2508.80 2544.22 2580.91 2931.82
 2979.90 3185.70 3232.96


--------------------------------------------------------------------------------
  K point     10 =   0.062500  0.187500  0.187500  Weight =    0.004
--------------------------------------------------------------------------------

  Frequencies (cm-1) [NB: Negative implies an imaginary mode]:

   63.53   93.40  121.28  159.72  177.08  203.82  219.26  230.63  239.67
  244.83  254.07  263.00  271.37  282.89  292.18  302.07  311.08  317.26
  329.49  336.95  348.19  357.12  364.80  376.42  380.76  388.02  390.04
  402.98  405.79  415.20  422.08  434.51  437.49  442.80  446.96  456.12
  468.83  478.04  484.13  490.13  499.28  500.86  516.25  527.19  531.18
  536.83  545.10  549.49  553.58  565.58  570.53  579.84  584.24  594.10
  604.24  609.40  611.45  625.73  634.09  641.92  644.87  654.73  660.69
  668.29  677.53  688.45  693.66  702.55  710.74  717.02  724.51  726.74
  738.61  746.97  754.93  764.60  775.65  784.24  788.05  789.85  807.02
  812.21  820.18  824.28  829.76  845.12  851.92  859.73  871.45  878.69
  885.43  897.63  901.79  914.39  923.76  936.49  943.08  954.40  958.29
  964.87  976.62  983.82  988.62  998.60 1007.57 1009.89 1019.53 1026.92
 1035.72 1039.27 1041.80 1058.80 1068.35 1076.57 1079.59 1091.83 1099.42
 1105.24 1114.91 1118.81 1129.55 1135.96 1146.79 1159.25 1171.59 1180.52
 1183.74 1193.53 1201.41 1210.50 1219.84 1229.55 1240.82 1255.15 1263.04
 1275.47 1280.89 1294.34 1300.97 1306.81 1314.69 1325.11 1333.42 1340.91
 1353.46 1358.02 1372.50 1377.11 1385.37 1402.96 1415.07 1429.22 1440.59
 1444.68 1456.46 1465.49 1474.26 1488.08 1501.49 1508.58 1526.96 1552.33
 1566.03 1571.08 1587.62 1591.54 1604.41 1607.81 1624.11 1681.46 1718.88
 1772.54 1781.66 1794.50 1829.29 1883.80 1897.34 1928.33 1936.20 1970.38
 1975.16 2073.20 2119.02 2154.50 2346.34 2508.80 2544.24 2580.90 2931.82
 2979.90 3185.70 3232.96


--------------------------------------------------------------------------------
  K point     11 =   0.062500  0.187500  0.312500  Weight =    0.004
--------------------------------------------------------------------------------

  Frequencies (cm-1) [NB: Negative implies an imaginary mode]:

   89.43  113.08  131.02  174.69  184.86  197.72  213.36  225.62  232.60
  241.48  247.89  265.29  269.88  281.32  288.78  297.47  309.92  315.92
  326.51  338.15  352.22  360.21  367.01  376.48  379.51  392.34  395.22
  400.09  404.73  419.72  424.60  430.73  436.07  440.77  450.17  456.88
  468.27  479.11  488.02  491.35  502.03  505.60  516.11  523.16  529.77
  539.50  543.10  547.47  551.49  567.08  570.40  577.54  579.62  592.86
  600.68  610.25  613.66  619.25  631.53  640.81  645.73  649.90  659.14
  667.92  673.48  686.64  691.18  700.31  712.23  721.13  724.25  730.52
  737.84  748.37  757.65  767.81  776.02  781.29  785.70  793.32  805.19
  811.47  819.62  825.43  835.85  846.58  853.32  861.89  869.93  877.63
  885.68  894.06  904.26  914.12  924.62  940.42  948.66  954.41  962.17
  966.84  972.89  980.72  986.73  993.89 1005.56 1011.45 1017.59 1025.32
 1036.38 1042.23 1044.00 1057.06 1069.26 1073.26 1082.37 1090.23 1100.60
 1104.69 1113.13 1119.78 1133.67 1139.14 1144.15 1156.26 1172.01 1178.42
 1182.49 1194.59 1199.26 1213.12 1222.40 1228.13 1239.49 1254.36 1264.36
 1275.70 1280.51 1293.50 1300.97 1306.50 1315.90 1323.55 1333.31 1340.78
 1350.22 1359.83 1373.80 1379.02 1384.87 1403.76 1415.96 1429.84 1440.80
 1442.48 1456.02 1465.52 1474.03 1488.03 1502.44 1508.66 1527.03 1551.87
 1566.25 1571.77 1586.61 1590.30 1604.58 1609.33 1624.15 1681.01 1718.73
 1772.53 1781.75 1794.51 1829.27 1883.76 1897.43 1929.22 1936.27 1969.54
 1975.12 2073.20 2119.02 2154.51 2346.35 2508.80 2544.27 2580.90 2931.82
 2979.89 3185.70 3232.96


--------------------------------------------------------------------------------
  K point     12 =   0.062500  0.187500  0.437500  Weight =    0.004
--------------------------------------------------------------------------------

  Frequencies (cm-1) [NB: Negative implies an imaginary mode]:

  106.51  126.76  145.82  169.14  187.29  196.02  209.44  222.65  231.21
  235.84  251.34  265.21  271.37  279.72  285.40  301.63  308.51  314.71
  326.64  339.23  346.12  357.23  362.75  375.04  383.91  390.12  396.50
  400.54  410.47  418.64  426.69  431.50  435.72  445.13  451.15  456.80
  469.90  479.66  487.77  495.86  502.26  506.00  518.61  519.10  526.76
  538.77  543.60  549.83  557.33  564.57  567.27  575.94  581.80  586.86
  598.90  607.59  613.04  616.26  630.86  637.41  641.84  652.15  661.07
  665.79  672.66  685.33  686.40  700.31  711.02  719.87  726.30  736.00
  739.24  747.58  761.35  768.94  774.62  780.22  786.06  794.76  805.50
  811.23  817.65  828.03  839.01  846.54  850.12  862.72  869.16  880.32
  886.83  896.33  907.04  912.80  925.65  940.96  951.11  954.06  962.29
  967.35  970.45  977.24  984.78  994.47 1003.21 1012.75 1017.04 1023.00
 1036.21 1043.97 1049.10 1056.06 1066.96 1072.12 1084.65 1090.18 1100.49
 1104.49 1111.79 1120.32 1135.01 1142.73 1145.33 1152.00 1170.10 1178.15
 1182.22 1194.32 1197.52 1214.04 1224.10 1230.15 1239.10 1253.20 1266.42
 1275.78 1280.18 1290.01 1302.74 1304.93 1316.39 1322.00 1333.52 1339.67
 1348.30 1362.09 1373.21 1382.26 1385.84 1403.51 1417.47 1430.16 1437.45
 1443.07 1455.34 1465.34 1474.35 1488.14 1502.88 1509.11 1527.21 1551.30
 1566.20 1572.36 1585.29 1590.32 1604.72 1610.23 1624.21 1680.68 1718.62
 1772.53 1781.82 1794.53 1829.25 1883.72 1897.48 1929.87 1936.35 1968.91
 1975.10 2073.20 2119.02 2154.51 2346.35 2508.80 2544.29 2580.89 2931.82
 2979.89 3185.70 3232.96


--------------------------------------------------------------------------------
  K point     13 =   0.062500  0.187500  0.562500  Weight =    0.004
--------------------------------------------------------------------------------

  Frequencies (cm-1) [NB: Negative implies an imaginary mode]:

  104.67  140.69  150.46  161.63  175.89  198.95  213.07  220.14  226.46
  242.00  255.61  260.14  274.32  278.42  285.28  297.15  305.65  322.16
  329.17  336.29  347.25  354.55  364.00  369.72  382.35  391.55  395.08
  401.83  412.31  415.44  427.76  432.09  435.78  443.32  454.67  459.53
  471.75  478.12  486.73  498.02  502.56  508.23  511.89  524.32  527.75
  537.64  543.85  549.51  556.95  564.31  566.67  573.36  582.56  593.29
  600.16  605.71  612.11  617.78  624.67  635.77  643.14  652.10  662.06
  665.47  671.68  681.28  688.03  699.44  709.98  718.66  729.14  738.00
  741.59  749.67  761.24  765.32  772.51  782.24  787.34  794.26  807.46
  812.21  815.73  826.71  836.40  843.86  851.88  862.88  870.52  882.91
  891.06  899.29  904.48  913.46  928.44  937.56  948.83  955.58  959.10
  963.16  969.49  978.91  984.35  995.10 1001.24 1013.34 1016.61 1025.13
 1035.09 1045.37 1051.46 1056.98 1063.95 1073.82 1083.37 1093.02 1099.23
 1104.37 1113.08 1120.08 1133.26 1140.97 1145.92 1155.01 1168.29 1177.37
 1184.10 1192.75 1197.36 1212.34 1225.10 1233.26 1240.08 1253.05 1266.86
 1276.54 1280.20 1286.33 1303.23 1304.90 1315.02 1321.73 1333.37 1338.35
 1348.27 1364.26 1372.57 1382.23 1389.05 1402.77 1418.72 1428.31 1436.08
 1443.31 1455.06 1466.40 1473.77 1488.21 1502.99 1509.53 1527.27 1551.08
 1565.73 1572.59 1584.85 1590.93 1604.92 1610.04 1624.28 1680.67 1718.61
 1772.54 1781.83 1794.53 1829.23 1883.69 1897.47 1929.88 1936.37 1968.91
 1975.10 2073.20 2119.02 2154.51 2346.35 2508.80 2544.29 2580.89 2931.82
 2979.89 3185.70 3232.96


--------------------------------------------------------------------------------
  K point     14 =   0.062500  0.187500  0.687500  Weight =    0.004
--------------------------------------------------------------------------------

  Frequencies (cm-1) [NB: Negative implies an imaginary mode]:

   94.96  116.41  146.69  160.80  185.26  199.16  213.05  217.07  234.54
  240.05  249.63  259.02  278.60  281.39  290.64  297.65  307.67  323.81
  329.43  334.61  347.33  358.90  360.83  368.97  372.88  383.07  396.33
  409.39  412.60  417.71  427.80  429.38  436.12  442.91  453.30  464.04
  469.24  472.82  488.66  496.39  502.98  507.52  516.13  521.29  530.41
  536.28  544.90  551.07  553.41  559.52  569.81  576.15  588.49  594.83
  600.71  606.38  616.48  621.76  625.80  634.77  642.65  648.52  659.06
  669.80  670.48  683.96  690.14  698.46  711.58  714.93  730.00  739.92
  742.80  749.31  758.95  765.03  769.99  780.79  789.98  793.68  804.88
  812.58  816.51  825.84  836.55  839.64  852.25  864.67  870.48  883.55
  894.00  900.66  901.84  911.41  930.07  935.96  944.88  954.91  957.46
  961.92  968.87  978.31  987.59  994.34 1001.73 1012.47 1017.87 1028.75
 1034.23 1045.76 1050.51 1057.31 1062.03 1075.83 1083.05 1095.06 1100.40
 1102.99 1115.35 1120.03 1129.45 1136.69 1146.39 1159.88 1168.66 1177.38
 1183.88 1193.19 1198.27 1209.56 1225.53 1234.69 1240.92 1254.37 1264.61
 1277.48 1281.67 1285.04 1302.24 1305.85 1312.40 1323.52 1332.69 1337.56
 1349.02 1365.84 1372.65 1381.48 1389.30 1402.48 1419.08 1425.25 1436.80
 1444.28 1455.23 1467.91 1472.32 1488.47 1502.53 1509.80 1527.19 1551.17
 1565.30 1572.26 1585.48 1591.88 1605.03 1608.91 1624.28 1680.98 1718.70
 1772.55 1781.77 1794.52 1829.22 1883.71 1897.40 1929.24 1936.33 1969.54
 1975.11 2073.20 2119.02 2154.51 2346.35 2508.80 2544.27 2580.90 2931.82
 2979.89 3185.70 3232.96


--------------------------------------------------------------------------------
  K point     15 =   0.062500  0.187500  0.812500  Weight =    0.004
--------------------------------------------------------------------------------

  Frequencies (cm-1) [NB: Negative implies an imaginary mode]:

   77.92   85.54  128.28  166.68  177.59  197.94  217.01  219.77  237.76
  248.61  252.48  263.33  279.71  288.30  293.57  302.14  312.03  320.36
  327.87  332.07  345.49  350.94  363.24  366.11  372.77  379.92  396.47
  407.96  409.27  416.41  428.46  429.74  440.14  445.89  451.98  463.74
  467.63  476.80  480.84  490.27  499.73  508.91  513.85  526.26  528.81
  540.51  542.13  548.12  559.33  561.29  571.54  580.14  587.29  595.79
  600.56  607.77  619.28  623.52  632.55  636.45  641.66  648.42  660.71
  668.87  676.18  688.63  693.13  699.59  708.22  710.21  729.36  738.64
  740.57  751.23  756.96  764.44  770.60  779.49  788.88  794.72  802.36
  813.06  817.03  825.57  835.65  839.72  851.63  859.60  872.56  881.39
  893.61  899.76  904.44  909.88  926.69  936.35  940.92  949.41  956.75
  963.75  972.74  980.80  988.16  999.01 1002.34 1012.09 1018.07 1029.12
 1036.03 1044.77 1047.42 1055.43 1062.47 1075.86 1084.97 1095.67 1100.06
 1104.69 1114.28 1122.04 1124.44 1134.90 1147.62 1161.51 1171.64 1176.44
 1183.71 1193.75 1200.39 1207.57 1224.52 1234.49 1241.09 1255.56 1262.68
 1276.81 1283.42 1286.94 1301.88 1305.50 1310.91 1326.19 1332.66 1336.96
 1349.88 1366.33 1373.31 1379.46 1387.44 1402.23 1417.70 1425.05 1437.63
 1446.19 1455.55 1466.92 1472.80 1488.96 1501.38 1509.81 1527.16 1551.38
 1565.36 1571.48 1586.58 1593.10 1604.67 1607.53 1624.21 1681.43 1718.85
 1772.55 1781.67 1794.51 1829.23 1883.74 1897.31 1928.35 1936.26 1970.38
 1975.14 2073.20 2119.02 2154.50 2346.34 2508.80 2544.24 2580.90 2931.82
 2979.90 3185.70 3232.96


--------------------------------------------------------------------------------
  K point     16 =   0.062500  0.187500  0.937500  Weight =    0.004
--------------------------------------------------------------------------------

  Frequencies (cm-1) [NB: Negative implies an imaginary mode]:

   59.05   65.94  105.33  159.27  180.80  199.51  222.58  226.51  243.47
  250.05  253.55  271.97  277.81  285.35  292.97  308.36  312.56  320.05
  327.91  334.39  343.54  350.30  358.73  362.51  376.11  383.85  394.54
  402.77  409.85  414.74  427.05  432.82  441.44  444.14  453.87  459.73
  467.02  469.02  481.55  488.97  499.04  505.20  513.60  526.75  533.69
  538.21  543.73  549.95  563.22  564.54  568.79  578.92  591.03  594.28
  602.65  607.41  613.85  625.73  633.74  640.14  644.75  654.08  664.85
  669.91  680.30  688.93  696.06  701.93  703.99  710.88  724.59  735.09
  737.83  749.24  756.69  766.98  771.04  778.32  789.73  795.69  802.10
  811.26  818.11  824.69  834.67  840.10  849.20  857.90  871.23  881.02
  891.70  898.12  905.67  911.30  924.77  933.68  938.25  948.23  956.78
  962.92  978.15  984.29  989.02 1001.17 1005.73 1011.50 1018.03 1031.16
 1035.28 1040.09 1044.88 1055.13 1064.65 1075.61 1085.03 1094.96 1099.98
 1106.21 1113.78 1117.42 1126.08 1135.05 1149.02 1161.15 1172.85 1176.68
 1185.99 1192.19 1201.74 1207.95 1221.79 1233.51 1241.52 1255.07 1262.94
 1276.06 1282.35 1290.77 1302.00 1304.81 1311.85 1326.70 1334.11 1337.41
 1350.94 1365.06 1372.96 1376.81 1386.54 1401.69 1415.98 1426.85 1438.15
 1447.92 1455.81 1464.90 1474.38 1489.18 1500.26 1509.51 1527.14 1551.77
 1565.72 1570.73 1587.44 1594.05 1603.83 1606.81 1624.14 1681.76 1718.96
 1772.55 1781.60 1794.49 1829.26 1883.79 1897.25 1927.73 1936.20 1970.95
 1975.17 2073.20 2119.02 2154.50 2346.34 2508.80 2544.22 2580.91 2931.82
 2979.90 3185.70 3232.96


--------------------------------------------------------------------------------
  K point     17 =   0.062500  0.312500  0.062500  Weight =    0.004
--------------------------------------------------------------------------------

  Frequencies (cm-1) [NB: Negative implies an imaginary mode]:

   86.35  104.16  133.85  163.17  183.41  191.93  216.26  231.94  241.14
  242.69  252.75  263.97  272.54  280.82  288.39  305.29  315.70  320.77
  322.07  336.96  345.28  350.97  360.79  368.47  375.16  383.82  389.90
  401.12  406.40  418.84  421.82  430.50  438.13  444.64  450.11  454.90
  463.69  472.53  485.10  488.66  498.83  506.93  520.41  525.25  532.91
  539.89  541.64  549.69  556.57  563.22  568.82  582.52  589.43  594.75
  600.48  606.67  612.67  627.73  638.20  643.66  649.97  657.74  665.57
  675.39  680.57  691.88  698.59  704.17  708.85  715.10  722.86  725.12
  732.52  748.67  752.25  761.89  770.68  777.77  787.96  797.62  801.92
  810.08  813.14  825.36  837.91  842.94  853.17  861.16  870.80  879.82
  889.48  899.22  905.53  911.07  922.51  932.19  939.89  949.49  956.39
  961.13  980.93  988.97  991.46  998.80 1005.68 1010.78 1017.22 1029.45
 1034.39 1037.11 1040.81 1058.39 1068.64 1073.41 1083.38 1096.56 1098.72
 1105.64 1112.81 1121.12 1125.86 1135.32 1146.76 1157.97 1170.78 1178.99
 1184.52 1192.27 1204.35 1210.73 1220.48 1234.69 1244.01 1254.83 1262.30
 1274.85 1282.15 1293.27 1297.67 1302.42 1316.47 1325.55 1332.41 1339.42
 1351.83 1366.37 1371.79 1377.12 1385.84 1400.56 1417.81 1426.68 1437.47
 1445.58 1455.32 1465.34 1476.64 1490.66 1499.82 1509.60 1525.72 1552.19
 1565.26 1571.59 1588.82 1592.41 1603.35 1606.96 1624.21 1681.76 1719.01
 1772.55 1781.55 1794.47 1829.29 1883.95 1896.99 1927.73 1936.23 1970.94
 1975.26 2073.18 2119.02 2154.51 2346.34 2508.80 2544.22 2580.90 2931.82
 2979.90 3185.70 3232.96


--------------------------------------------------------------------------------
  K point     18 =   0.062500  0.312500  0.187500  Weight =    0.004
--------------------------------------------------------------------------------

  Frequencies (cm-1) [NB: Negative implies an imaginary mode]:

   85.54  120.71  133.84  163.86  189.22  195.14  210.46  230.67  240.36
  241.87  252.35  259.34  268.40  280.10  287.93  298.61  312.22  318.49
  327.97  335.85  347.20  357.67  364.24  377.54  380.45  384.10  388.48
  401.27  408.85  417.84  421.80  425.90  437.93  445.90  450.55  455.16
  463.42  478.50  485.48  491.63  497.11  505.85  516.39  527.75  532.09
  535.77  542.17  544.94  554.78  564.94  569.60  578.88  583.60  596.52
  601.46  611.27  613.51  624.48  634.58  643.15  648.16  653.76  664.09
  673.00  678.83  689.18  695.75  705.62  708.56  717.58  722.88  725.55
  738.41  747.03  753.91  763.36  771.43  782.38  784.98  794.07  803.50
  811.72  814.10  825.85  836.36  845.66  855.96  864.80  870.19  876.78
  888.23  897.55  901.64  912.82  922.46  935.24  944.12  953.12  958.62
  962.98  980.23  986.51  989.29  996.86 1006.00 1007.98 1017.53 1026.14
 1035.10 1038.68 1041.90 1058.46 1069.52 1075.88 1078.69 1095.79 1100.17
 1105.89 1114.40 1119.87 1126.22 1136.63 1147.23 1155.59 1170.28 1179.76
 1181.88 1193.66 1203.11 1212.79 1221.58 1232.06 1241.48 1255.84 1262.44
 1274.39 1283.20 1294.73 1296.94 1303.86 1317.01 1324.88 1332.12 1340.32
 1354.65 1361.92 1370.90 1377.12 1385.24 1401.78 1417.13 1429.03 1439.11
 1443.15 1455.75 1466.53 1474.52 1490.48 1500.80 1509.57 1525.70 1552.24
 1564.98 1572.15 1588.51 1590.79 1603.84 1608.08 1624.19 1681.46 1718.91
 1772.54 1781.61 1794.48 1829.29 1883.94 1897.04 1928.34 1936.27 1970.37
 1975.24 2073.18 2119.02 2154.51 2346.34 2508.80 2544.24 2580.90 2931.82
 2979.90 3185.70 3232.96


--------------------------------------------------------------------------------
  K point     19 =   0.062500  0.312500  0.312500  Weight =    0.004
--------------------------------------------------------------------------------

  Frequencies (cm-1) [NB: Negative implies an imaginary mode]:

   97.42  122.63  145.86  164.91  188.38  199.94  208.24  226.66  235.10
  241.34  249.75  263.50  266.96  278.36  287.05  290.85  307.83  318.14
  329.33  337.92  350.62  360.07  367.46  374.82  383.94  392.40  394.92
  399.31  406.41  421.70  423.22  429.29  436.38  442.08  448.98  457.21
  467.02  485.18  486.82  490.14  499.84  505.89  514.12  523.28  528.14
  536.85  541.48  545.74  554.20  564.79  567.28  576.36  582.90  593.66
  599.27  606.51  615.02  620.45  632.17  642.29  646.12  650.77  660.26
  671.93  674.48  686.37  692.47  702.93  708.69  720.22  725.28  731.87
  739.25  747.44  758.84  763.66  774.00  783.42  785.97  790.69  801.88
  815.42  818.11  825.27  836.22  845.47  861.23  863.33  871.49  873.98
  889.36  893.57  904.05  913.24  924.57  938.15  947.77  955.99  962.12
  965.54  976.76  979.78  988.27  992.09 1003.52 1009.00 1016.26 1023.84
 1036.46 1041.73 1045.11 1056.61 1070.70 1072.28 1081.37 1094.65 1100.81
 1106.19 1114.82 1118.96 1128.40 1139.26 1146.44 1152.77 1169.96 1178.06
 1180.67 1194.74 1200.71 1214.55 1224.33 1230.52 1238.62 1255.75 1264.32
 1274.16 1283.32 1294.45 1296.79 1305.50 1317.14 1323.84 1331.74 1340.65
 1356.23 1358.39 1371.96 1377.19 1385.06 1403.04 1416.97 1430.72 1439.50
 1441.85 1456.40 1466.61 1472.15 1490.83 1501.47 1510.24 1525.90 1551.67
 1564.69 1572.85 1586.77 1590.46 1604.22 1609.53 1624.20 1681.03 1718.77
 1772.54 1781.71 1794.50 1829.27 1883.90 1897.10 1929.23 1936.36 1969.53
 1975.21 2073.18 2119.02 2154.51 2346.35 2508.80 2544.27 2580.89 2931.82
 2979.89 3185.70 3232.96


--------------------------------------------------------------------------------
  K point     20 =   0.062500  0.312500  0.437500  Weight =    0.004
--------------------------------------------------------------------------------

  Frequencies (cm-1) [NB: Negative implies an imaginary mode]:

  111.39  124.68  157.43  166.98  179.92  194.24  203.08  223.55  233.79
  243.96  252.31  264.19  269.06  273.70  287.43  294.62  305.86  320.20
  331.73  338.89  347.17  358.07  365.23  372.21  381.34  396.46  398.57
  402.09  410.66  419.68  427.26  432.40  434.28  444.87  447.95  459.38
  473.54  482.59  485.20  494.78  499.32  504.90  512.84  517.44  525.88
  536.39  546.74  551.18  556.56  561.24  565.39  577.21  579.02  587.13
  593.10  606.64  612.47  622.02  629.31  637.82  643.49  654.40  660.00
  669.75  673.89  682.18  690.04  701.57  707.59  719.54  729.10  736.25
  738.76  747.74  761.00  764.18  775.85  781.01  787.96  792.88  804.51
  816.59  819.42  825.00  839.44  840.71  857.53  864.72  869.38  877.42
  890.61  896.51  904.45  918.16  926.27  939.29  949.52  954.51  961.04
  967.36  970.60  976.85  985.11  992.28 1001.19 1010.50 1016.10 1023.54
 1035.29 1043.93 1049.44 1057.41 1067.18 1071.86 1084.75 1093.04 1100.19
 1106.40 1114.33 1120.20 1129.86 1139.71 1146.91 1151.69 1167.90 1176.54
 1182.07 1194.37 1198.61 1215.11 1225.05 1232.57 1237.26 1255.38 1266.55
 1273.88 1282.96 1290.88 1298.73 1306.27 1316.96 1322.66 1331.31 1340.62
 1352.03 1361.74 1372.50 1379.09 1385.14 1403.27 1417.72 1431.31 1436.78
 1443.10 1457.12 1465.22 1471.63 1491.00 1501.87 1511.02 1526.20 1550.94
 1564.37 1573.34 1585.28 1590.82 1604.53 1610.34 1624.27 1680.71 1718.65
 1772.55 1781.78 1794.51 1829.24 1883.87 1897.13 1929.88 1936.45 1968.91
 1975.18 2073.18 2119.02 2154.51 2346.35 2508.80 2544.28 2580.89 2931.82
 2979.89 3185.70 3232.96


--------------------------------------------------------------------------------
  K point     21 =   0.062500  0.312500  0.562500  Weight =    0.004
--------------------------------------------------------------------------------

  Frequencies (cm-1) [NB: Negative implies an imaginary mode]:

  114.58  134.32  153.63  166.22  174.70  189.16  207.49  223.32  232.37
  245.63  253.94  261.67  270.61  276.59  284.56  295.41  304.90  324.32
  330.55  337.13  345.90  356.36  365.91  369.63  377.42  394.15  401.66
  403.69  410.76  417.79  429.60  431.76  437.49  443.17  453.42  460.08
  474.97  478.94  485.64  494.36  499.55  505.32  508.82  523.35  525.77
  535.81  547.55  551.39  554.09  562.85  567.72  571.99  581.73  586.82
  594.10  608.33  613.16  622.34  625.66  633.58  646.04  652.24  660.98
  670.05  674.88  681.00  690.41  700.10  707.59  717.03  729.29  735.89
  740.87  751.21  756.46  764.52  774.78  781.65  787.44  794.36  809.31
  815.58  819.53  825.02  837.97  843.25  851.42  864.21  869.96  880.87
  892.84  900.28  902.90  921.46  928.61  937.69  946.31  952.16  957.95
  964.16  971.02  976.98  983.51  991.33 1001.03 1012.79 1016.28 1026.35
 1032.16 1043.70 1052.15 1060.97 1063.91 1073.31 1084.66 1092.99 1101.06
 1105.55 1114.83 1120.66 1128.96 1136.38 1148.26 1155.11 1166.16 1174.97
 1184.85 1193.19 1197.60 1213.75 1225.57 1235.12 1238.21 1255.59 1266.76
 1274.62 1282.88 1286.81 1299.86 1306.47 1315.86 1322.53 1330.70 1339.84
 1350.11 1364.76 1372.29 1381.23 1386.26 1402.45 1418.93 1429.22 1435.30
 1443.86 1457.51 1465.27 1471.40 1490.99 1501.94 1511.48 1526.37 1550.52
 1564.11 1573.45 1584.92 1591.36 1604.77 1610.11 1624.33 1680.70 1718.64
 1772.56 1781.79 1794.52 1829.22 1883.85 1897.11 1929.89 1936.47 1968.91
 1975.18 2073.18 2119.02 2154.51 2346.35 2508.80 2544.28 2580.89 2931.82
 2979.89 3185.70 3232.96


--------------------------------------------------------------------------------
  K point     22 =   0.062500  0.312500  0.687500  Weight =    0.004
--------------------------------------------------------------------------------

  Frequencies (cm-1) [NB: Negative implies an imaginary mode]:

  112.69  124.53  142.65  168.51  181.72  189.77  213.73  225.61  238.24
  244.61  249.24  256.59  269.73  274.90  291.15  298.18  304.99  322.29
  326.87  334.29  347.93  358.42  361.69  367.68  375.06  390.53  395.31
  404.64  414.00  418.33  426.89  431.70  437.42  444.78  452.91  465.58
  469.46  477.44  486.26  489.33  497.03  507.56  517.04  523.60  528.86
  535.13  547.41  548.47  553.02  560.80  569.86  572.86  586.46  593.89
  596.44  608.71  614.74  624.29  630.02  631.15  643.66  651.49  660.28
  673.42  676.80  683.43  690.75  701.48  710.07  713.14  725.15  737.92
  741.45  747.41  756.92  763.90  772.22  779.76  788.12  794.23  807.20
  814.76  818.92  827.34  838.74  842.15  851.76  864.03  870.81  881.04
  895.78  900.29  902.22  915.80  930.22  933.58  942.92  951.66  958.47
  965.68  968.66  976.83  987.31  990.99 1001.24 1014.06 1016.94 1027.31
 1031.20 1043.58 1052.05 1060.15 1063.37 1076.03 1083.60 1094.84 1102.33
 1105.27 1113.68 1121.25 1128.20 1131.61 1148.93 1158.83 1167.37 1174.55
 1183.66 1195.61 1197.09 1211.52 1225.91 1236.56 1240.27 1256.37 1264.56
 1276.73 1281.68 1285.21 1300.04 1305.68 1314.37 1324.33 1329.95 1338.73
 1349.83 1366.90 1372.59 1381.31 1388.06 1401.38 1420.00 1425.07 1435.48
 1444.65 1457.42 1465.83 1471.87 1491.15 1501.36 1511.48 1526.32 1550.50
 1564.21 1573.10 1585.70 1592.00 1604.74 1609.02 1624.34 1681.00 1718.73
 1772.56 1781.73 1794.51 1829.22 1883.86 1897.06 1929.25 1936.41 1969.54
 1975.19 2073.18 2119.02 2154.51 2346.35 2508.80 2544.27 2580.89 2931.82
 2979.89 3185.70 3232.96


--------------------------------------------------------------------------------
  K point     23 =   0.062500  0.312500  0.812500  Weight =    0.004
--------------------------------------------------------------------------------

  Frequencies (cm-1) [NB: Negative implies an imaginary mode]:

   97.84  111.38  143.23  164.62  182.23  197.30  216.19  225.26  236.52
  243.37  250.81  261.07  271.12  281.10  289.95  302.31  311.79  316.87
  325.54  332.20  345.42  351.86  360.45  365.42  373.65  389.63  393.92
  404.31  411.33  415.21  427.09  429.13  437.73  446.38  450.61  461.76
  473.99  475.76  480.45  486.86  497.44  510.47  516.68  526.17  531.52
  538.39  544.20  546.67  555.63  562.81  569.98  579.17  589.37  591.24
  601.59  610.06  612.95  625.49  632.60  640.24  643.06  652.14  663.22
  673.65  680.18  687.96  693.81  701.34  707.76  712.24  726.12  736.60
  739.58  744.29  754.98  764.09  770.32  775.94  788.30  797.06  802.06
  811.93  818.97  826.65  838.24  845.76  850.93  861.98  872.86  877.90
  896.59  900.08  904.29  910.36  926.80  930.89  939.30  952.22  957.10
  963.34  972.63  982.02  991.50  994.05 1001.55 1013.04 1016.47 1026.62
 1034.21 1043.49 1048.00 1056.42 1065.57 1076.52 1084.60 1095.23 1101.33
 1107.88 1111.71 1121.02 1126.39 1131.54 1148.45 1159.74 1171.10 1174.29
 1183.16 1194.40 1200.72 1209.81 1224.83 1237.28 1241.92 1257.06 1262.24
 1277.35 1280.62 1286.90 1299.32 1304.17 1314.05 1326.65 1329.95 1337.86
 1349.98 1367.91 1373.49 1380.15 1387.97 1400.75 1420.22 1422.61 1435.98
 1445.80 1456.79 1465.02 1474.14 1491.48 1500.20 1511.00 1526.14 1550.89
 1564.70 1572.37 1587.08 1592.74 1604.23 1607.67 1624.29 1681.44 1718.88
 1772.56 1781.63 1794.49 1829.24 1883.89 1897.00 1928.36 1936.32 1970.38
 1975.22 2073.19 2119.02 2154.51 2346.34 2508.80 2544.24 2580.90 2931.82
 2979.90 3185.70 3232.96


--------------------------------------------------------------------------------
  K point     24 =   0.062500  0.312500  0.937500  Weight =    0.004
--------------------------------------------------------------------------------

  Frequencies (cm-1) [NB: Negative implies an imaginary mode]:

   91.24   98.84  138.10  164.00  182.88  192.34  217.84  226.39  241.05
  245.62  250.30  270.57  272.12  282.08  284.13  308.37  314.90  318.31
  324.22  333.38  340.77  351.20  358.15  364.00  373.95  386.91  395.34
  400.26  407.22  417.42  424.21  431.21  436.77  446.15  448.12  456.76
  466.21  473.99  484.54  487.96  497.74  510.01  519.83  525.29  532.66
  539.69  542.02  548.71  558.47  562.67  571.70  580.98  589.02  595.11
  601.45  605.41  612.74  627.09  637.03  642.90  647.75  656.42  666.52
  674.64  681.46  689.51  699.55  702.56  704.37  714.09  726.54  731.13
  733.11  749.25  750.85  762.79  769.02  776.73  787.86  796.06  801.87
  811.84  817.28  823.35  837.87  844.54  851.98  859.88  872.08  878.90
  894.13  898.86  907.33  909.35  924.14  929.92  938.13  950.09  956.23
  960.30  978.66  987.44  992.17  998.21 1003.33 1011.78 1016.28 1028.92
 1035.52 1039.71 1043.32 1055.84 1067.94 1074.44 1085.52 1094.77 1100.32
 1107.43 1111.53 1120.67 1125.74 1134.31 1146.93 1159.35 1171.84 1176.20
 1184.88 1192.49 1203.37 1209.58 1222.29 1236.70 1243.76 1255.49 1262.26
 1275.98 1281.03 1290.39 1298.13 1302.86 1315.17 1326.42 1331.80 1338.03
 1350.42 1367.94 1373.86 1377.90 1386.81 1400.33 1418.78 1424.15 1436.52
 1446.57 1455.71 1464.61 1476.32 1491.37 1499.37 1510.24 1525.90 1551.57
 1565.21 1571.67 1588.26 1593.23 1603.41 1606.87 1624.24 1681.75 1718.99
 1772.55 1781.56 1794.47 1829.27 1883.93 1896.97 1927.74 1936.25 1970.94
 1975.26 2073.19 2119.02 2154.51 2346.34 2508.80 2544.22 2580.90 2931.82
 2979.90 3185.70 3232.96


--------------------------------------------------------------------------------
  K point     25 =   0.062500  0.437500  0.062500  Weight =    0.004
--------------------------------------------------------------------------------

  Frequencies (cm-1) [NB: Negative implies an imaginary mode]:

  117.20  131.66  138.95  153.96  172.05  207.89  211.95  235.44  238.34
  241.36  250.99  263.11  268.94  278.47  285.25  294.51  316.30  321.66
  325.53  333.37  342.73  350.24  361.94  369.93  373.30  383.18  392.16
  400.46  407.91  416.34  419.35  424.83  435.42  439.85  448.89  458.16
  460.71  470.64  487.65  494.92  505.19  509.22  521.06  522.76  531.86
  538.25  544.97  549.18  553.06  562.45  572.75  583.70  588.78  594.47
  598.82  607.11  617.14  627.65  635.44  646.09  651.01  657.84  670.34
  676.69  681.14  691.33  697.55  703.98  709.71  715.02  721.09  724.82
  735.87  742.18  754.36  762.45  765.59  776.25  789.38  793.23  801.65
  807.18  816.32  826.28  835.93  845.80  856.54  865.77  871.88  882.71
  889.54  897.60  901.99  911.03  923.05  928.19  944.82  949.93  953.41
  959.29  978.47  991.47  996.94  998.84 1003.37 1011.03 1017.10 1024.25
 1032.18 1038.87 1042.34 1056.31 1070.14 1074.16 1083.69 1093.55 1101.50
 1107.85 1111.60 1123.05 1124.96 1134.69 1143.76 1157.07 1170.99 1179.61
 1182.06 1193.18 1204.68 1212.93 1222.76 1235.64 1244.63 1257.11 1262.15
 1273.18 1281.41 1289.72 1297.96 1300.97 1318.14 1325.78 1330.85 1338.26
 1351.14 1369.25 1374.46 1377.32 1386.13 1399.32 1418.56 1425.67 1437.13
 1443.61 1454.95 1465.73 1477.11 1493.22 1498.80 1510.34 1524.65 1552.08
 1564.79 1572.23 1589.63 1591.64 1602.98 1607.10 1624.26 1681.75 1719.03
 1772.55 1781.52 1794.46 1829.30 1884.05 1896.77 1927.73 1936.28 1970.94
 1975.32 2073.17 2119.02 2154.51 2346.34 2508.80 2544.22 2580.90 2931.82
 2979.90 3185.70 3232.96


--------------------------------------------------------------------------------
  K point     26 =   0.062500  0.437500  0.187500  Weight =    0.004
--------------------------------------------------------------------------------

  Frequencies (cm-1) [NB: Negative implies an imaginary mode]:

  112.61  128.79  150.01  156.83  171.81  201.85  211.27  232.63  237.89
  246.89  251.49  257.56  264.81  280.20  288.06  293.89  308.52  321.97
  326.48  337.20  344.05  353.27  366.03  371.27  379.74  386.43  390.30
  399.68  413.45  415.32  420.34  423.19  435.14  441.20  449.26  455.11
  468.23  477.73  485.73  496.32  500.84  510.28  516.00  524.80  529.24
  534.18  544.63  547.89  555.38  564.89  570.62  576.49  586.37  592.54
  601.30  611.66  616.32  624.09  632.90  642.82  648.74  653.91  666.93
  676.21  680.11  690.92  694.83  701.67  707.40  713.23  723.82  728.08
  737.43  746.28  753.39  765.09  768.15  778.72  789.54  793.42  801.15
  809.93  814.24  828.42  839.28  843.76  855.96  864.97  875.01  881.35
  887.92  897.51  903.27  910.85  922.98  929.48  945.43  953.80  957.55
  962.60  977.94  988.36  994.77  995.28 1003.92 1007.20 1017.41 1023.98
 1031.48 1039.15 1043.26 1057.39 1069.90 1076.26 1080.62 1095.40 1102.60
[...]


--------------------------------------------------------------------------------
  K point    247 =   0.437500  0.812500  0.812500  Weight =    0.004
--------------------------------------------------------------------------------

  Frequencies (cm-1) [NB: Negative implies an imaginary mode]:

  118.96  140.59  149.11  172.74  182.58  201.07  210.28  227.19  243.91
  255.64  270.61  280.19  290.32  291.83  299.40  300.14  309.01  321.78
  324.48  332.62  346.47  354.59  364.83  374.30  381.61  386.62  389.65
  401.10  404.81  412.95  417.09  430.33  435.27  449.34  456.30  459.57
  467.83  478.38  485.10  490.48  495.08  504.68  510.82  519.66  527.55
  537.24  545.18  552.39  556.51  564.16  568.83  574.78  581.22  594.50
  596.38  604.32  612.11  621.26  628.61  634.24  640.32  649.87  662.42
  670.42  672.63  684.05  691.05  701.05  711.80  714.84  723.56  736.73
  742.03  746.78  754.20  769.00  773.71  779.63  792.66  796.09  803.33
  814.03  822.07  825.76  838.24  845.44  857.88  860.13  870.81  875.43
  881.41  895.78  906.46  910.91  916.87  927.70  937.49  944.28  948.39
  960.48  965.96  979.96  984.48  988.65  998.57 1007.22 1016.22 1020.18
 1031.10 1034.95 1048.84 1056.65 1068.29 1081.45 1090.79 1094.95 1104.71
 1106.89 1116.83 1121.10 1131.76 1144.15 1155.43 1166.79 1174.45 1178.57
 1186.73 1196.81 1199.81 1215.49 1223.53 1236.89 1241.88 1251.29 1267.45
 1276.28 1281.16 1292.88 1305.20 1309.74 1316.93 1325.37 1338.30 1345.85
 1351.10 1356.63 1373.98 1380.86 1386.21 1400.00 1415.22 1430.22 1438.22
 1444.80 1457.18 1466.21 1474.91 1488.64 1501.16 1507.69 1525.57 1547.33
 1557.82 1569.91 1586.58 1590.74 1604.63 1606.80 1623.34 1681.33 1719.00
 1770.07 1781.81 1784.23 1829.31 1893.10 1900.18 1928.36 1939.09 1969.75
 1972.80 2072.43 2119.03 2154.47 2346.36 2508.80 2544.25 2580.90 2931.82
 2979.90 3185.70 3232.96


--------------------------------------------------------------------------------
  K point    248 =   0.437500  0.812500  0.937500  Weight =    0.004
--------------------------------------------------------------------------------

  Frequencies (cm-1) [NB: Negative implies an imaginary mode]:

  118.59  139.06  147.10  171.77  182.15  204.76  206.47  222.48  241.44
  255.54  269.18  278.88  285.59  295.32  298.35  304.37  311.80  324.27
  332.66  336.24  339.62  351.30  367.14  370.16  379.24  385.54  392.66
  401.43  403.79  409.53  417.60  427.17  436.99  448.91  451.79  453.91
  465.75  478.40  484.66  492.61  498.43  503.18  514.83  522.19  531.74
  539.20  547.52  548.79  553.22  566.82  569.78  574.82  586.72  592.62
  601.11  605.35  616.47  619.65  627.92  632.41  641.48  652.04  662.54
  668.26  672.13  683.42  688.87  697.91  708.31  715.08  727.21  735.87
  741.45  747.68  755.65  770.93  775.44  782.56  792.69  797.18  806.49
  812.74  822.87  828.07  837.60  845.39  851.82  860.96  866.92  873.70
  882.15  892.62  904.05  911.43  918.68  922.95  936.40  944.07  948.80
  959.88  969.21  975.33  985.29  990.34  999.03 1007.77 1015.18 1023.32
 1029.86 1034.67 1048.83 1055.81 1071.30 1080.91 1092.72 1097.20 1103.83
 1106.21 1115.47 1122.81 1132.91 1143.23 1154.95 1166.71 1172.24 1179.17
 1186.07 1195.39 1201.04 1215.41 1224.26 1234.92 1244.00 1255.88 1266.99
 1273.80 1282.71 1291.71 1304.96 1310.98 1316.74 1325.01 1336.08 1345.43
 1351.29 1356.85 1372.81 1382.39 1387.47 1398.48 1416.34 1430.45 1437.36
 1443.23 1457.18 1468.02 1475.67 1486.98 1502.21 1507.76 1524.87 1548.89
 1556.10 1569.58 1587.23 1591.73 1604.44 1605.74 1623.49 1681.61 1719.09
 1770.11 1781.77 1784.21 1829.28 1892.97 1900.25 1927.72 1939.09 1970.19
 1972.95 2072.43 2119.04 2154.47 2346.35 2508.81 2544.23 2580.90 2931.82
 2979.90 3185.70 3232.96


--------------------------------------------------------------------------------
  K point    249 =   0.437500  0.937500  0.062500  Weight =    0.004
--------------------------------------------------------------------------------

  Frequencies (cm-1) [NB: Negative implies an imaginary mode]:

  117.42  128.12  148.41  167.81  190.13  205.51  214.03  226.00  239.99
  256.01  261.89  274.39  280.46  291.76  298.14  305.99  313.15  323.54
  333.28  343.40  345.78  356.34  363.19  368.72  376.78  383.04  392.98
  400.25  400.57  414.73  421.37  427.35  435.10  442.88  450.44  455.60
  466.42  471.75  484.04  493.81  500.62  506.69  516.15  523.64  527.94
  537.53  547.80  553.41  555.59  566.01  573.17  575.28  582.19  595.64
  604.97  608.91  615.20  619.32  626.81  634.76  645.46  653.92  657.49
  666.25  674.17  679.59  686.14  690.42  707.64  716.99  724.25  739.00
  743.51  748.05  759.40  767.76  776.20  781.68  789.69  799.40  803.38
  813.67  822.22  830.12  839.75  844.47  852.41  859.69  864.61  871.37
  885.73  893.11  903.03  910.44  918.30  921.13  935.53  947.70  949.58
  959.81  970.09  974.89  984.83  992.86  998.86 1006.18 1017.08 1027.33
 1031.32 1035.08 1045.38 1055.53 1071.92 1079.50 1087.95 1100.63 1102.87
 1108.46 1114.75 1124.04 1129.46 1143.52 1155.07 1166.26 1169.54 1181.68
 1186.16 1193.52 1205.88 1210.16 1225.01 1235.82 1244.73 1256.02 1267.72
 1272.84 1285.85 1289.42 1303.94 1313.30 1320.50 1323.31 1336.31 1341.25
 1352.65 1355.51 1373.93 1383.45 1386.81 1398.18 1415.95 1429.94 1438.43
 1445.01 1455.16 1468.52 1475.09 1484.98 1502.56 1508.53 1525.47 1549.34
 1555.47 1569.27 1586.88 1592.25 1604.24 1606.22 1623.44 1681.62 1719.06
 1770.11 1781.78 1784.25 1829.26 1892.59 1900.77 1927.71 1939.03 1970.16
 1972.92 2072.44 2119.04 2154.46 2346.35 2508.81 2544.23 2580.91 2931.82
 2979.90 3185.70 3232.96


--------------------------------------------------------------------------------
  K point    250 =   0.437500  0.937500  0.187500  Weight =    0.004
--------------------------------------------------------------------------------

  Frequencies (cm-1) [NB: Negative implies an imaginary mode]:

  114.77  138.46  149.74  168.09  195.68  203.14  218.35  226.67  239.43
  254.36  263.21  274.18  276.39  289.47  295.70  303.36  309.85  320.78
  336.54  338.75  351.72  358.97  364.57  367.95  377.77  384.34  393.30
  398.81  404.00  415.87  423.20  426.68  434.02  444.99  451.58  455.63
  466.83  477.63  488.26  491.59  502.78  505.89  512.12  522.41  526.72
  535.79  546.23  553.62  558.27  562.22  569.94  579.59  582.28  592.51
  602.86  605.45  611.33  621.93  626.54  636.70  642.77  649.00  657.75
  669.71  673.15  679.56  686.94  690.69  707.06  714.18  724.40  738.99
  746.82  750.31  759.99  766.84  773.99  781.80  789.99  799.45  802.24
  814.80  820.04  829.92  835.79  841.18  853.00  860.89  865.39  875.52
  888.32  892.97  900.59  914.36  921.04  927.26  939.86  945.35  950.59
  959.12  967.81  972.76  982.47  993.89 1002.38 1004.44 1019.15 1026.65
 1031.17 1035.95 1045.01 1057.40 1068.01 1076.03 1085.66 1099.32 1100.77
 1108.01 1117.16 1125.12 1131.83 1142.96 1153.52 1166.39 1169.14 1184.26
 1189.02 1194.54 1204.20 1210.52 1224.36 1234.10 1242.83 1255.47 1267.15
 1274.24 1285.89 1290.29 1302.04 1314.64 1319.88 1323.37 1335.70 1339.21
 1353.63 1357.99 1375.24 1381.45 1389.08 1399.63 1416.46 1426.68 1439.98
 1446.18 1453.31 1466.29 1474.19 1487.72 1501.38 1509.03 1526.35 1547.67
 1556.87 1569.77 1586.08 1591.44 1604.49 1607.36 1623.19 1681.36 1718.97
 1770.06 1781.81 1784.28 1829.27 1892.73 1900.68 1928.33 1939.05 1969.71
 1972.79 2072.44 2119.03 2154.46 2346.36 2508.80 2544.25 2580.90 2931.82
 2979.90 3185.70 3232.96


--------------------------------------------------------------------------------
  K point    251 =   0.437500  0.937500  0.312500  Weight =    0.004
--------------------------------------------------------------------------------

  Frequencies (cm-1) [NB: Negative implies an imaginary mode]:

  117.85  142.67  161.44  173.84  193.63  201.63  217.33  226.68  236.08
  252.56  261.24  273.22  280.27  287.25  293.44  305.53  311.23  316.61
  331.99  343.22  348.07  358.70  367.52  373.75  380.52  383.49  392.15
  401.76  409.96  415.26  424.53  429.64  434.57  445.35  450.96  454.94
  469.50  480.88  485.76  490.84  503.06  506.38  509.75  521.50  525.95
  536.74  540.35  548.44  554.91  562.67  569.90  580.63  583.81  593.00
  597.68  599.16  610.15  620.60  625.68  637.14  643.81  648.15  656.73
  671.39  675.01  680.77  688.22  693.29  703.81  711.71  725.19  740.95
  746.12  752.39  760.12  767.10  774.24  781.21  788.60  798.27  801.61
  813.02  821.19  823.89  835.63  839.22  851.50  859.37  869.71  879.61
  891.79  896.64  901.58  915.52  922.52  928.38  944.27  947.27  954.55
  957.07  964.58  971.70  980.26  994.02 1004.65 1007.09 1019.20 1025.01
 1030.22 1037.48 1045.37 1057.41 1063.99 1073.32 1083.02 1096.43 1098.46
 1107.10 1119.20 1126.52 1137.68 1141.23 1152.83 1165.35 1169.18 1185.38
 1193.59 1196.20 1200.94 1211.45 1223.06 1232.07 1240.86 1255.99 1264.50
 1275.36 1286.39 1291.50 1301.21 1315.16 1317.86 1323.91 1335.55 1339.00
 1353.26 1361.24 1376.06 1379.92 1390.64 1401.45 1417.33 1423.90 1441.43
 1447.17 1450.74 1464.97 1472.79 1490.18 1500.67 1508.92 1527.38 1545.85
 1558.70 1570.34 1584.98 1590.48 1604.40 1609.07 1622.86 1680.97 1718.84
 1770.00 1781.86 1784.31 1829.30 1892.90 1900.57 1929.25 1939.07 1969.00
 1972.64 2072.44 2119.03 2154.46 2346.37 2508.80 2544.27 2580.90 2931.82
 2979.89 3185.70 3232.96


--------------------------------------------------------------------------------
  K point    252 =   0.437500  0.937500  0.437500  Weight =    0.004
--------------------------------------------------------------------------------

  Frequencies (cm-1) [NB: Negative implies an imaginary mode]:

  124.14  146.50  167.35  180.38  191.64  199.21  213.37  225.32  230.68
  249.60  262.63  275.37  281.30  287.49  292.42  304.87  313.64  317.93
  330.99  340.99  351.64  358.72  371.48  374.49  378.00  389.05  396.03
  406.29  408.15  412.52  425.89  431.49  434.73  439.64  450.22  459.01
  473.09  479.05  481.16  492.99  499.61  502.29  515.51  516.60  527.42
  534.13  536.61  547.24  555.78  562.66  569.80  577.68  582.01  593.85
  595.73  600.41  608.02  617.91  621.63  636.25  646.14  650.52  657.52
  669.81  679.07  682.64  690.31  693.61  701.55  715.25  724.06  737.17
  749.47  752.88  759.65  766.53  775.47  782.18  786.58  795.83  803.63
  808.76  820.03  823.59  835.25  837.66  848.72  858.56  874.65  882.48
  890.99  900.15  908.53  913.47  919.82  929.02  944.26  949.44  953.20
  960.16  965.05  972.26  979.93  992.29 1004.92 1011.64 1017.83 1022.92
 1031.44 1039.33 1041.63 1056.99 1061.04 1074.64 1081.75 1093.72 1097.22
 1106.60 1119.48 1128.25 1137.47 1144.88 1153.24 1163.15 1169.84 1185.32
 1190.64 1200.62 1202.56 1210.70 1221.22 1231.29 1239.99 1257.54 1261.09
 1275.39 1287.84 1291.52 1301.44 1313.51 1318.42 1323.59 1335.96 1339.71
 1352.75 1363.41 1375.30 1380.00 1390.44 1402.66 1417.16 1424.03 1441.92
 1447.35 1449.34 1464.83 1471.72 1491.22 1500.79 1508.37 1528.00 1544.74
 1560.12 1570.62 1584.21 1589.87 1604.25 1610.20 1622.65 1680.69 1718.74
 1769.95 1781.90 1784.33 1829.32 1893.02 1900.52 1929.93 1939.08 1968.46
 1972.56 2072.44 2119.03 2154.46 2346.37 2508.80 2544.29 2580.89 2931.81
 2979.89 3185.70 3232.96


--------------------------------------------------------------------------------
  K point    253 =   0.437500  0.937500  0.562500  Weight =    0.004
--------------------------------------------------------------------------------

  Frequencies (cm-1) [NB: Negative implies an imaginary mode]:

  124.37  151.00  165.26  178.16  191.10  199.29  210.83  226.42  229.57
  245.48  273.43  275.52  280.36  287.50  296.76  304.95  310.33  318.78
  329.81  343.49  347.11  361.65  367.69  373.74  380.31  390.02  398.23
  403.34  413.59  415.17  420.21  429.79  433.16  438.27  451.67  459.63
  474.61  478.22  482.44  489.05  498.08  504.68  508.07  517.77  527.70
  534.90  540.63  548.56  555.73  561.12  567.45  574.82  584.22  593.27
  597.08  601.71  607.35  616.57  618.61  639.60  646.86  648.71  658.68
  670.53  678.67  682.39  690.57  695.71  705.97  713.96  728.11  737.58
  746.37  750.88  761.46  766.53  774.81  781.04  789.32  794.07  801.18
  808.23  817.65  825.11  833.12  840.32  848.01  859.00  877.94  883.42
  889.08  902.05  907.61  911.69  918.22  933.30  939.11  946.98  956.32
  958.62  966.27  975.56  982.28  986.93 1003.96 1012.27 1019.07 1021.73
 1032.89 1037.61 1041.08 1058.08 1060.18 1079.14 1081.48 1092.67 1097.77
 1106.29 1120.49 1126.67 1135.59 1146.10 1155.52 1161.42 1170.15 1184.19
 1188.89 1200.22 1204.93 1210.83 1220.97 1231.97 1240.70 1254.20 1263.44
 1275.65 1286.66 1291.67 1302.67 1311.72 1319.09 1323.56 1336.95 1340.39
 1352.37 1363.70 1374.64 1379.87 1388.89 1403.17 1415.94 1425.87 1441.28
 1447.13 1450.54 1464.87 1471.98 1490.82 1501.01 1507.97 1527.84 1544.82
 1560.43 1570.49 1584.23 1589.80 1604.27 1610.09 1622.72 1680.67 1718.74
 1769.96 1781.91 1784.32 1829.32 1892.99 1900.56 1929.94 1939.07 1968.47
 1972.54 2072.44 2119.03 2154.46 2346.37 2508.80 2544.29 2580.89 2931.81
 2979.89 3185.70 3232.96


--------------------------------------------------------------------------------
  K point    254 =   0.437500  0.937500  0.687500  Weight =    0.004
--------------------------------------------------------------------------------

  Frequencies (cm-1) [NB: Negative implies an imaginary mode]:

  120.49  146.53  161.93  171.38  187.48  199.50  215.22  225.91  234.60
  254.04  270.85  276.67  282.49  291.02  297.77  304.47  308.92  317.08
  330.36  337.03  349.26  360.27  364.04  374.17  379.01  389.80  395.89
  400.26  409.79  413.91  423.34  429.00  436.24  439.64  451.90  460.12
  469.89  476.88  483.04  488.16  499.25  505.62  508.27  521.12  526.07
  532.43  543.90  550.62  557.54  560.83  568.04  574.26  586.94  593.36
  596.89  601.26  610.56  616.94  623.39  639.05  643.97  649.29  661.74
  670.15  675.21  680.01  688.79  701.95  710.65  715.18  723.00  741.09
  744.53  752.03  757.04  766.56  776.23  779.24  792.75  793.98  798.46
  808.94  818.41  825.64  832.53  842.28  852.88  859.62  875.50  882.67
  886.76  898.31  905.75  909.80  918.58  932.48  939.96  944.41  951.88
  960.74  965.21  975.86  983.01  988.45 1001.23 1010.77 1018.45 1022.76
 1031.52 1036.88 1044.53 1057.59 1063.09 1081.64 1086.12 1092.17 1100.72
 1106.17 1119.58 1126.15 1131.28 1144.51 1157.36 1162.62 1169.77 1182.41
 1188.67 1198.60 1202.17 1212.95 1222.52 1234.89 1241.75 1251.30 1266.79
 1276.54 1282.89 1292.26 1304.65 1310.36 1318.47 1324.41 1338.15 1341.03
 1352.06 1361.46 1375.01 1379.00 1387.54 1402.50 1415.07 1427.75 1439.91
 1447.22 1452.80 1465.41 1473.36 1489.03 1501.25 1507.97 1527.00 1546.06
 1559.39 1570.09 1585.05 1590.27 1604.49 1608.79 1623.02 1680.93 1718.83
 1770.01 1781.88 1784.29 1829.31 1892.85 1900.65 1929.27 1939.04 1969.04
 1972.60 2072.44 2119.03 2154.46 2346.37 2508.80 2544.27 2580.90 2931.82
 2979.89 3185.70 3232.96


--------------------------------------------------------------------------------
  K point    255 =   0.437500  0.937500  0.812500  Weight =    0.004
--------------------------------------------------------------------------------

  Frequencies (cm-1) [NB: Negative implies an imaginary mode]:

  115.68  143.20  151.11  166.42  186.41  203.10  216.20  227.27  242.09
  251.98  269.18  277.22  283.87  289.62  299.08  304.90  309.55  319.19
  332.38  337.74  345.85  359.27  363.76  371.66  380.21  387.18  392.03
  398.88  405.70  409.39  421.83  429.29  434.81  445.80  453.29  461.55
  464.29  474.75  482.67  492.32  498.33  502.93  511.00  516.60  529.39
  537.80  544.72  552.43  557.56  564.92  569.85  579.06  580.23  594.59
  599.59  608.03  609.05  618.85  629.41  634.24  645.77  651.20  660.55
  667.95  674.50  682.02  687.07  700.88  710.96  715.33  722.21  738.11
  743.42  748.59  760.73  767.00  774.35  780.55  791.65  797.86  799.51
  810.99  819.90  826.94  835.20  844.20  856.05  860.55  869.76  875.66
  886.89  894.80  904.68  909.61  916.81  927.45  937.12  946.42  949.30
  958.48  966.80  977.66  983.66  991.31  999.34 1009.89 1015.04 1025.75
 1031.34 1034.23 1047.28 1056.15 1068.29 1082.49 1089.62 1094.54 1102.87
 1107.91 1115.37 1124.85 1130.18 1143.42 1156.99 1164.70 1170.18 1180.21
 1187.15 1197.54 1200.27 1213.53 1224.04 1237.44 1243.12 1251.91 1268.48
 1275.52 1281.62 1292.06 1306.19 1310.30 1317.44 1325.24 1338.16 1342.75
 1351.15 1358.05 1374.40 1379.81 1387.11 1400.39 1415.13 1429.74 1438.64
 1446.23 1454.79 1467.34 1474.76 1486.20 1502.09 1507.98 1525.95 1547.88
 1557.51 1569.57 1586.21 1591.16 1604.67 1607.00 1623.34 1681.32 1718.96
 1770.08 1781.84 1784.26 1829.28 1892.68 1900.75 1928.35 1939.02 1969.75
 1972.74 2072.44 2119.03 2154.46 2346.36 2508.80 2544.25 2580.90 2931.82
 2979.90 3185.70 3232.96


--------------------------------------------------------------------------------
  K point    256 =   0.437500  0.937500  0.937500  Weight =    0.004
--------------------------------------------------------------------------------

  Frequencies (cm-1) [NB: Negative implies an imaginary mode]:

  113.57  135.74  147.96  166.88  185.95  207.27  212.27  228.48  235.72
  256.48  265.25  275.61  282.57  295.12  298.58  307.27  311.07  322.76
  334.10  339.79  342.30  356.46  365.74  369.54  379.81  382.85  391.90
  396.37  403.57  412.54  420.63  428.15  437.12  442.22  452.43  455.33
  467.65  472.53  482.99  489.63  500.14  505.78  513.73  519.13  531.32
  540.20  549.04  550.72  555.72  564.90  571.29  576.55  585.24  594.52
  603.50  608.46  613.61  617.86  628.74  636.12  648.29  652.08  658.96
  665.02  674.64  682.40  685.56  696.09  707.99  714.34  726.28  735.34
  743.56  748.39  759.32  768.04  776.23  782.07  788.60  799.14  804.16
  810.09  822.89  829.24  840.03  845.23  854.48  858.63  866.84  870.32
  886.92  893.16  905.13  907.79  916.83  920.84  934.27  947.83  949.94
  958.72  969.74  977.60  984.09  992.61  997.80 1009.53 1013.99 1027.95
 1031.05 1033.14 1047.31 1054.86 1072.38 1081.98 1088.70 1099.95 1102.52
 1108.48 1114.35 1122.75 1130.85 1143.00 1156.28 1165.86 1169.97 1179.71
 1185.84 1194.73 1202.86 1212.44 1224.94 1236.93 1245.02 1254.74 1268.14
 1273.16 1283.78 1290.76 1305.79 1311.85 1318.01 1324.98 1337.24 1343.75
 1350.25 1355.94 1373.51 1382.30 1386.73 1398.37 1415.58 1431.11 1437.91
 1444.95 1455.64 1469.24 1475.33 1484.13 1502.94 1508.00 1525.30 1549.43
 1555.72 1569.20 1586.95 1592.11 1604.35 1606.05 1623.50 1681.60 1719.06
 1770.12 1781.79 1784.24 1829.26 1892.57 1900.80 1927.72 1939.02 1970.18
 1972.89 2072.44 2119.04 2154.46 2346.35 2508.81 2544.23 2580.91 2931.82
 2979.90 3185.70 3232.96


--------------------------------------------------------------------------------
  Phonon properties (per mole of unit cells): Temperature =      0.000 K
--------------------------------------------------------------------------------
  Zero point energy            =       12.103207 eV
--------------------------------------------------------------------------------

  Time to end of properties =      99.4229 seconds


  Peak dynamic memory used =       3.43 MB 


  Timing analysis for GULP :

--------------------------------------------------------------------------------
  Task / Subroutine                                          Time (Seconds)
--------------------------------------------------------------------------------
  Calculation of real space energy and derivatives                0.0936
  Calculation of Brenner energy and derivatives                  89.0294
  Calculation of phonons                                         98.9359
  Calculation of matrix inversion                                 0.0001
  Disk read/write operations to scratch files                     0.2816
--------------------------------------------------------------------------------
  Total CPU time                                                 99.4229
--------------------------------------------------------------------------------


  Job Finished at 21:51.05 30th July       2020                               

