********************************************************************************
*                       GENERAL UTILITY LATTICE PROGRAM                        *
*                                 Julian Gale                                  *
*                       Curtin Institute for Computation                       *
*                    School of Molecular and Life Sciences                     *
*                    Curtin University, Western Australia                      *
********************************************************************************
* Version = 5.2.0 * Last modified =  17th December 2019                        *
********************************************************************************
*  optimise     - perform optimisation run                                     *
*  conv         - constant volume calculation                                  *
*  isotropic    - only isotropic cell expansion to be allowed                  *
*  lbfgs        - use limited memory BFGS update                               *
********************************************************************************
* ASE calculation                                                              *
********************************************************************************


  Job Started  at 13:10.24 31st July       2020                               

  Number of CPUs =     1


  Total number of configurations input =      1

********************************************************************************
*  Input for Configuration =   1                                               *
********************************************************************************

  Formula = C64                                                         

  Number of irreducible atoms/shells =      64


  Total number atoms/shells =      64

  Dimensionality = 3               :  Bulk   



  Cartesian lattice vectors (Angstroms) :

        7.707834    0.000000    0.000000
        0.000000    7.707834    0.000000
        0.000000    0.000000    7.707834

  Cell parameters (Angstroms/Degrees):

  a =       7.7078    alpha =  90.0000
  b =       7.7078    beta  =  90.0000
  c =       7.7078    gamma =  90.0000

  Initial cell volume =         457.927852 Angs**3

  Temperature of configuration =   0.00     K 

  Pressure of configuration =         0.000 GPa 

  Fractional coordinates of asymmetric unit :

--------------------------------------------------------------------------------
   No.  Atomic       x           y          z         Charge      Occupancy
        Label      (Frac)      (Frac)     (Frac)        (e)         (Frac)  
--------------------------------------------------------------------------------
      1 C     c    0.476040    0.519880    0.065020     0.00000    1.000000    
      2 C     c    0.408230 *  0.739570 *  0.304320 *   0.00000    1.000000    
      3 C     c    0.283500 *  0.257800 *  0.903540 *   0.00000    1.000000    
      4 C     c    0.121740 *  0.015000 *  0.619820 *   0.00000    1.000000    
      5 C     c    0.961630 *  0.858120 *  0.881770 *   0.00000    1.000000    
      6 C     c    0.791230 *  0.484810 *  0.577650 *   0.00000    1.000000    
      7 C     c    0.611650 *  0.418220 *  0.674250 *   0.00000    1.000000    
      8 C     c    0.791740 *  0.717880 *  0.328190 *   0.00000    1.000000    
      9 C     c    0.885060 *  0.252990 *  0.323860 *   0.00000    1.000000    
     10 C     c    0.677960 *  0.164610 *  0.130500 *   0.00000    1.000000    
     11 C     c    0.876740 *  0.039070 *  0.362680 *   0.00000    1.000000    
     12 C     c    0.961970 *  0.955970 *  0.523330 *   0.00000    1.000000    
     13 C     c    0.510700 *  0.062220 *  0.141510 *   0.00000    1.000000    
     14 C     c    0.554090 *  0.985780 *  0.487090 *   0.00000    1.000000    
     15 C     c    0.461770 *  0.326030 *  0.993000 *   0.00000    1.000000    
     16 C     c    0.946890 *  0.357160 *  0.482980 *   0.00000    1.000000    
     17 C     c    0.154070 *  0.421170 *  0.828520 *   0.00000    1.000000    
     18 C     c    0.831770 *  0.738730 *  0.814560 *   0.00000    1.000000    
     19 C     c    0.920120 *  0.954310 *  0.037080 *   0.00000    1.000000    
     20 C     c    0.147610 *  0.916410 *  0.794660 *   0.00000    1.000000    
     21 C     c    0.868360 *  0.656000 *  0.654380 *   0.00000    1.000000    
     22 C     c    0.879940 *  0.132590 *  0.720880 *   0.00000    1.000000    
     23 C     c    0.499460 *  0.600100 *  0.409770 *   0.00000    1.000000    
     24 C     c    0.653150 *  0.710260 *  0.882190 *   0.00000    1.000000    
     25 C     c    0.638740 *  0.591320 *  0.028020 *   0.00000    1.000000    
     26 C     c    0.781760 *  0.980410 *  0.706670 *   0.00000    1.000000    
     27 C     c    0.472510 *  0.453970 *  0.572730 *   0.00000    1.000000    
     28 C     c    0.358710 *  0.639340 *  0.140240 *   0.00000    1.000000    
     29 C     c    0.589570 *  0.956860 *  0.680290 *   0.00000    1.000000    
     30 C     c    0.718040 *  0.337390 *  0.232610 *   0.00000    1.000000    
     31 C     c    0.001140 *  0.187050 *  0.148080 *   0.00000    1.000000    
     32 C     c    0.965430 *  0.404090 *  0.890210 *   0.00000    1.000000    
     33 C     c    0.506120 *  0.789580 *  0.785060 *   0.00000    1.000000    
     34 C     c    0.837780 *  0.141480 *  0.024540 *   0.00000    1.000000    
     35 C     c    0.349610 *  0.176980 *  0.704320 *   0.00000    1.000000    
     36 C     c    0.114160 *  0.481020 *  0.449370 *   0.00000    1.000000    
     37 C     c    0.177470 *  0.156740 *  0.076340 *   0.00000    1.000000    
     38 C     c    0.281670 *  0.397800 *  0.512320 *   0.00000    1.000000    
     39 C     c    0.098910 *  0.680840 *  0.419430 *   0.00000    1.000000    
     40 C     c    0.930150 *  0.506570 *  0.035090 *   0.00000    1.000000    
     41 C     c    0.825710 *  0.254140 *  0.863560 *   0.00000    1.000000    
     42 C     c    0.362940 *  0.214000 *  0.165770 *   0.00000    1.000000    
     43 C     c    0.399470 *  0.120970 *  0.502590 *   0.00000    1.000000    
     44 C     c    0.983380 *  0.715560 *  0.265900 *   0.00000    1.000000    
     45 C     c    0.394910 *  0.281560 *  0.358750 *   0.00000    1.000000    
     46 C     c    0.560620 *  0.397310 *  0.336180 *   0.00000    1.000000    
     47 C     c    0.315270 *  0.767480 *  0.789300 *   0.00000    1.000000    
     48 C     c    0.937820 *  0.909940 *  0.211780 *   0.00000    1.000000    
     49 C     c    0.766280 *  0.492620 *  0.107940 *   0.00000    1.000000    
     50 C     c    0.254780 *  0.806800 *  0.411390 *   0.00000    1.000000    
     51 C     c    0.703920 *  0.556230 *  0.406270 *   0.00000    1.000000    
     52 C     c    0.957750 *  0.762410 *  0.534000 *   0.00000    1.000000    
     53 C     c    0.232480 *  0.605790 *  0.869400 *   0.00000    1.000000    
     54 C     c    0.043270 *  0.616500 *  0.115680 *   0.00000    1.000000    
     55 C     c    0.619960 *  0.289910 *  0.840110 *   0.00000    1.000000    
     56 C     c    0.437720 *  0.008810 *  0.964830 *   0.00000    1.000000    
     57 C     c    0.520090 *  0.915040 *  0.281560 *   0.00000    1.000000    
     58 C     c    0.206950 *  0.638760 *  0.050740 *   0.00000    1.000000    
     59 C     c    0.024090 *  0.212260 *  0.608440 *   0.00000    1.000000    
     60 C     c    0.263200 *  0.965980 *  0.492200 *   0.00000    1.000000    
     61 C     c    0.714850 *  0.905160 *  0.357290 *   0.00000    1.000000    
     62 C     c    0.247900 *  0.994030 *  0.956370 *   0.00000    1.000000    
     63 C     c    0.509550 *  0.102510 *  0.802490 *   0.00000    1.000000    
     64 C     c    0.189960 *  0.302950 *  0.668360 *   0.00000    1.000000    
--------------------------------------------------------------------------------


  Constraints : 

--------------------------------------------------------------------------------
  Constraint no.      Unconstrained     Constrained    Coefficient    Offset
                         Variable         Variable
--------------------------------------------------------------------------------
           1              Strain 1        Strain 2       1.00000      0.0000
           2              Strain 1        Strain 3       1.00000      0.0000
--------------------------------------------------------------------------------


********************************************************************************
*  General input information                                                   *
********************************************************************************

  Species output for all configurations : 

--------------------------------------------------------------------------------
  Species    Type    Atomic    Atomic    Charge       Radii (Angs)     Library
                     Number     Mass       (e)     Cova   Ionic  VDW   Symbol
--------------------------------------------------------------------------------
    C        Core        6      12.01   0.000000   0.770  0.000  1.530          
--------------------------------------------------------------------------------


  Lattice summation method               =    Ewald          (3-D)
                                         =    Parry          (2-D)
                                         =    Saunders et al (1-D)
  Accuracy factor for lattice sums       =   12.000


  Analytic derivatives to be used

  Time limit = Infinity

  Maximum range for interatomic potentials =    100000.000000 Angstroms

  Brenner et al 2002 potential to be used with explicit splines for P


********************************************************************************
*  Output for configuration   1                                                *
********************************************************************************


  Components of energy : 

--------------------------------------------------------------------------------
  Interatomic potentials     =           0.00000000 eV    
  Brenner potentials         =        -420.41903745 eV    
  Monopole - monopole (real) =           0.00000000 eV    
  Monopole - monopole (recip)=           0.00000000 eV    
  Monopole - monopole (total)=           0.00000000 eV    
--------------------------------------------------------------------------------
  Total lattice energy       =        -420.41903745 eV    
--------------------------------------------------------------------------------
  Total lattice energy       =          -40564.0104 kJ/(mole unit cells)
--------------------------------------------------------------------------------


  Number of variables =      189

  Maximum number of calculations  =          2000
  Maximum Hessian update interval =            10
  Maximum step size               =   1.000000000
  Maximum parameter tolerance     =   0.000010000
  Maximum function  tolerance     =   0.000010000
  Maximum gradient  tolerance     =   0.001000000
  Maximum gradient  component     =   0.010000000

  Maximum LM gradient tolerance   =   0.900000000
  Symmetry not applied to optimisation

  Limited Memory BFGS to be used of order   10

  BFGS hessian update to be used

  Lower half triangular hessian to be used

  Start of bulk optimisation :

  Cycle:      0 Energy:      -420.419037  Gnorm:      0.488833  CPU:    0.033
  Cycle:      1 Energy:      -420.567294  Gnorm:      0.412846  CPU:    0.077
  Cycle:      2 Energy:      -421.113341  Gnorm:      0.188443  CPU:    0.085
  Cycle:      3 Energy:      -421.229435  Gnorm:      0.166291  CPU:    0.090
  Cycle:      4 Energy:      -421.311658  Gnorm:      0.128740  CPU:    0.105
  Cycle:      5 Energy:      -421.363393  Gnorm:      0.107877  CPU:    0.122
  Cycle:      6 Energy:      -421.411777  Gnorm:      0.088498  CPU:    0.130
  Cycle:      7 Energy:      -421.444584  Gnorm:      0.118690  CPU:    0.135
  Cycle:      8 Energy:      -421.476257  Gnorm:      0.073226  CPU:    0.158
  Cycle:      9 Energy:      -421.498670  Gnorm:      0.061745  CPU:    0.167
  Cycle:     10 Energy:      -421.518745  Gnorm:      0.063316  CPU:    0.173
  Cycle:     11 Energy:      -421.536570  Gnorm:      0.071842  CPU:    0.178
  Cycle:     12 Energy:      -421.553020  Gnorm:      0.050498  CPU:    0.204
  Cycle:     13 Energy:      -421.565617  Gnorm:      0.056591  CPU:    0.212
  Cycle:     14 Energy:      -421.571870  Gnorm:      0.036959  CPU:    0.218
  Cycle:     15 Energy:      -421.577693  Gnorm:      0.036431  CPU:    0.223
  Cycle:     16 Energy:      -421.586357  Gnorm:      0.053900  CPU:    0.249
  Cycle:     17 Energy:      -421.590794  Gnorm:      0.058036  CPU:    0.258
  Cycle:     18 Energy:      -421.595090  Gnorm:      0.030259  CPU:    0.264
  Cycle:     19 Energy:      -421.599735  Gnorm:      0.024607  CPU:    0.288
  Cycle:     20 Energy:      -421.603616  Gnorm:      0.030571  CPU:    0.297
  Cycle:     21 Energy:      -421.606366  Gnorm:      0.084821  CPU:    0.303
  Cycle:     22 Energy:      -421.612659  Gnorm:      0.028835  CPU:    0.308
  Cycle:     23 Energy:      -421.615106  Gnorm:      0.021887  CPU:    0.334
  Cycle:     24 Energy:      -421.618175  Gnorm:      0.028589  CPU:    0.343
  Cycle:     25 Energy:      -421.622438  Gnorm:      0.029690  CPU:    0.349
  Cycle:     26 Energy:      -421.625016  Gnorm:      0.042447  CPU:    0.373
  Cycle:     27 Energy:      -421.628784  Gnorm:      0.019373  CPU:    0.385
  Cycle:     28 Energy:      -421.630857  Gnorm:      0.016854  CPU:    0.392
  Cycle:     29 Energy:      -421.633202  Gnorm:      0.025713  CPU:    0.397
  Cycle:     30 Energy:      -421.634518  Gnorm:      0.034710  CPU:    0.421
  Cycle:     31 Energy:      -421.636119  Gnorm:      0.016184  CPU:    0.431
  Cycle:     32 Energy:      -421.637445  Gnorm:      0.015031  CPU:    0.437
  Cycle:     33 Energy:      -421.638355  Gnorm:      0.016289  CPU:    0.462
  Cycle:     34 Energy:      -421.639160  Gnorm:      0.043952  CPU:    0.471
  Cycle:     35 Energy:      -421.640815  Gnorm:      0.012241  CPU:    0.478
  Cycle:     36 Energy:      -421.641251  Gnorm:      0.009647  CPU:    0.490
  Cycle:     37 Energy:      -421.641930  Gnorm:      0.011037  CPU:    0.509
  Cycle:     38 Energy:      -421.642626  Gnorm:      0.012342  CPU:    0.516
  Cycle:     39 Energy:      -421.643096  Gnorm:      0.011139  CPU:    0.535
  Cycle:     40 Energy:      -421.643516  Gnorm:      0.007614  CPU:    0.550
  Cycle:     41 Energy:      -421.643690  Gnorm:      0.013925  CPU:    0.557
  Cycle:     42 Energy:      -421.643975  Gnorm:      0.009904  CPU:    0.562
  Cycle:     43 Energy:      -421.644170  Gnorm:      0.009233  CPU:    0.586
  Cycle:     44 Energy:      -421.644392  Gnorm:      0.006759  CPU:    0.596
  Cycle:     45 Energy:      -421.644763  Gnorm:      0.007390  CPU:    0.603
  Cycle:     46 Energy:      -421.644955  Gnorm:      0.012229  CPU:    0.608
  Cycle:     47 Energy:      -421.645213  Gnorm:      0.007809  CPU:    0.633
  Cycle:     48 Energy:      -421.645613  Gnorm:      0.006526  CPU:    0.642
  Cycle:     49 Energy:      -421.645825  Gnorm:      0.009022  CPU:    0.649
  Cycle:     50 Energy:      -421.646145  Gnorm:      0.007595  CPU:    0.654
  Cycle:     51 Energy:      -421.646449  Gnorm:      0.008152  CPU:    0.680
  Cycle:     52 Energy:      -421.646707  Gnorm:      0.009248  CPU:    0.688
  Cycle:     53 Energy:      -421.646901  Gnorm:      0.006274  CPU:    0.694
  Cycle:     54 Energy:      -421.647147  Gnorm:      0.006161  CPU:    0.718
  Cycle:     55 Energy:      -421.647416  Gnorm:      0.008988  CPU:    0.727
  Cycle:     56 Energy:      -421.647670  Gnorm:      0.011284  CPU:    0.733
  Cycle:     57 Energy:      -421.647909  Gnorm:      0.005947  CPU:    0.739
  Cycle:     58 Energy:      -421.648137  Gnorm:      0.006459  CPU:    0.765
  Cycle:     59 Energy:      -421.648381  Gnorm:      0.008137  CPU:    0.773
  Cycle:     60 Energy:      -421.648701  Gnorm:      0.017363  CPU:    0.779
  Cycle:     61 Energy:      -421.649106  Gnorm:      0.008274  CPU:    0.803
  Cycle:     62 Energy:      -421.649317  Gnorm:      0.006418  CPU:    0.812
  Cycle:     63 Energy:      -421.649579  Gnorm:      0.008225  CPU:    0.818
  Cycle:     64 Energy:      -421.649855  Gnorm:      0.012431  CPU:    0.823
  Cycle:     65 Energy:      -421.650154  Gnorm:      0.008219  CPU:    0.850
  Cycle:     66 Energy:      -421.650553  Gnorm:      0.006634  CPU:    0.858
  Cycle:     67 Energy:      -421.650747  Gnorm:      0.010167  CPU:    0.864
  Cycle:     68 Energy:      -421.650987  Gnorm:      0.007478  CPU:    0.874
  Cycle:     69 Energy:      -421.651357  Gnorm:      0.006680  CPU:    0.896
  Cycle:     70 Energy:      -421.651476  Gnorm:      0.010294  CPU:    0.904
  Cycle:     71 Energy:      -421.651624  Gnorm:      0.005488  CPU:    0.910
  Cycle:     72 Energy:      -421.651770  Gnorm:      0.004276  CPU:    0.924
  Cycle:     73 Energy:      -421.651891  Gnorm:      0.004981  CPU:    0.943
  Cycle:     74 Energy:      -421.651919  Gnorm:      0.013155  CPU:    0.950
  Cycle:     75 Energy:      -421.652079  Gnorm:      0.003687  CPU:    0.963
  Cycle:     76 Energy:      -421.652120  Gnorm:      0.002633  CPU:    0.983
  Cycle:     77 Energy:      -421.652180  Gnorm:      0.003356  CPU:    0.990
  Cycle:     78 Energy:      -421.652216  Gnorm:      0.007098  CPU:    0.996
  Cycle:     79 Energy:      -421.652269  Gnorm:      0.002940  CPU:    1.015
  Cycle:     80 Energy:      -421.652299  Gnorm:      0.002185  CPU:    1.029
  Cycle:     81 Energy:      -421.652326  Gnorm:      0.002590  CPU:    1.036
  Cycle:     82 Energy:      -421.652374  Gnorm:      0.002617  CPU:    1.041
  Cycle:     83 Energy:      -421.652395  Gnorm:      0.004556  CPU:    1.070
  Cycle:     84 Energy:      -421.652434  Gnorm:      0.002183  CPU:    1.079
  Cycle:     85 Energy:      -421.652454  Gnorm:      0.001443  CPU:    1.085
  Cycle:     86 Energy:      -421.652476  Gnorm:      0.001885  CPU:    1.096
  Cycle:     87 Energy:      -421.652492  Gnorm:      0.003618  CPU:    1.117
  Cycle:     88 Energy:      -421.652516  Gnorm:      0.002202  CPU:    1.125
  Cycle:     89 Energy:      -421.652541  Gnorm:      0.001767  CPU:    1.137
  Cycle:     90 Energy:      -421.652559  Gnorm:      0.002150  CPU:    1.157
  Cycle:     91 Energy:      -421.652569  Gnorm:      0.002012  CPU:    1.168
  Cycle:     92 Energy:      -421.652577  Gnorm:      0.001220  CPU:    1.173
  Cycle:     93 Energy:      -421.652585  Gnorm:      0.001100  CPU:    1.199
  Cycle:     94 Energy:      -421.652591  Gnorm:      0.001518  CPU:    1.208
  Cycle:     95 Energy:      -421.652597  Gnorm:      0.000913  CPU:    1.214
  Cycle:     96 Energy:      -421.652601  Gnorm:      0.000878  CPU:    1.220
  Cycle:     97 Energy:      -421.652605  Gnorm:      0.001252  CPU:    1.245
  Cycle:     98 Energy:      -421.652609  Gnorm:      0.000849  CPU:    1.254
  Cycle:     99 Energy:      -421.652613  Gnorm:      0.000767  CPU:    1.260
  Cycle:    100 Energy:      -421.652618  Gnorm:      0.000915  CPU:    1.270
  Cycle:    101 Energy:      -421.652620  Gnorm:      0.001860  CPU:    1.292
  Cycle:    102 Energy:      -421.652625  Gnorm:      0.000745  CPU:    1.299
  Cycle:    103 Energy:      -421.652628  Gnorm:      0.000610  CPU:    1.305
  Cycle:    104 Energy:      -421.652631  Gnorm:      0.000737  CPU:    1.320
  Cycle:    105 Energy:      -421.652634  Gnorm:      0.001754  CPU:    1.338
  Cycle:    106 Energy:      -421.652639  Gnorm:      0.000857  CPU:    1.345
  Cycle:    107 Energy:      -421.652642  Gnorm:      0.000657  CPU:    1.358
  Cycle:    108 Energy:      -421.652646  Gnorm:      0.000944  CPU:    1.378
  Cycle:    109 Energy:      -421.652648  Gnorm:      0.001878  CPU:    1.385
  Cycle:    110 Energy:      -421.652652  Gnorm:      0.001006  CPU:    1.391
  Cycle:    111 Energy:      -421.652657  Gnorm:      0.000772  CPU:    1.410
  Cycle:    112 Energy:      -421.652660  Gnorm:      0.000864  CPU:    1.424
  Cycle:    113 Energy:      -421.652667  Gnorm:      0.001389  CPU:    1.431
  Cycle:    114 Energy:      -421.652670  Gnorm:      0.000983  CPU:    1.444
  Cycle:    115 Energy:      -421.652672  Gnorm:      0.000583  CPU:    1.466
  Cycle:    116 Energy:      -421.652674  Gnorm:      0.000588  CPU:    1.474
  Cycle:    117 Energy:      -421.652676  Gnorm:      0.000767  CPU:    1.480
  Cycle:    118 Energy:      -421.652678  Gnorm:      0.000878  CPU:    1.504
  Cycle:    119 Energy:      -421.652679  Gnorm:      0.000548  CPU:    1.512
  Cycle:    120 Energy:      -421.652680  Gnorm:      0.000446  CPU:    1.519
  Cycle:    121 Energy:      -421.652681  Gnorm:      0.000468  CPU:    1.545
  Cycle:    122 Energy:      -421.652682  Gnorm:      0.000565  CPU:    1.553
  Cycle:    123 Energy:      -421.652683  Gnorm:      0.000686  CPU:    1.559
  Cycle:    124 Energy:      -421.652684  Gnorm:      0.000329  CPU:    1.569
  Cycle:    125 Energy:      -421.652684  Gnorm:      0.000349  CPU:    1.592
  Cycle:    126 Energy:      -421.652685  Gnorm:      0.000371  CPU:    1.599
  Cycle:    127 Energy:      -421.652685  Gnorm:      0.000561  CPU:    1.627
  Cycle:    128 Energy:      -421.652686  Gnorm:      0.000250  CPU:    1.636


  **** Optimisation achieved ****


  Final energy =    -421.65268645 eV
  Final Gnorm  =       0.00018674

  Components of energy : 

--------------------------------------------------------------------------------
  Interatomic potentials     =           0.00000000 eV    
  Brenner potentials         =        -421.65268645 eV    
  Monopole - monopole (real) =           0.00000000 eV    
  Monopole - monopole (recip)=           0.00000000 eV    
  Monopole - monopole (total)=           0.00000000 eV    
--------------------------------------------------------------------------------
  Total lattice energy       =        -421.65268645 eV    
--------------------------------------------------------------------------------
  Total lattice energy       =          -40683.0387 kJ/(mole unit cells)
--------------------------------------------------------------------------------

  Final fractional coordinates of atoms :

--------------------------------------------------------------------------------
   No.  Atomic        x           y          z          Radius
        Label       (Frac)      (Frac)     (Frac)       (Angs) 
--------------------------------------------------------------------------------
     1  C     c     0.476040    0.519880    0.065020    0.000000
     2  C     c     0.408337    0.736630    0.309783    0.000000
     3  C     c     0.290495    0.262825    0.910365    0.000000
     4  C     c     0.103879    0.007942    0.618541    0.000000
     5  C     c     0.956122    0.855312    0.884399    0.000000
     6  C     c     0.796091    0.476341    0.584146    0.000000
     7  C     c     0.616833    0.411699    0.680148    0.000000
     8  C     c     0.787045    0.713288    0.341739    0.000000
     9  C     c     0.885235    0.242433    0.328603    0.000000
    10  C     c     0.689229    0.158167    0.144340    0.000000
    11  C     c     0.869194    0.034271    0.364335    0.000000
    12  C     c     0.950317    0.931417    0.524366    0.000000
    13  C     c     0.517373    0.057996    0.153098    0.000000
    14  C     c     0.549223    0.977927    0.498828    0.000000
    15  C     c     0.468792    0.329598    0.001301    0.000000
    16  C     c     0.950365    0.349195    0.490679    0.000000
    17  C     c     0.159200    0.419503    0.833116    0.000000
    18  C     c     0.829587    0.735285    0.815609    0.000000
    19  C     c     0.910246    0.946024    0.039995    0.000000
    20  C     c     0.143696    0.916015    0.799961    0.000000
    21  C     c     0.869573    0.648501    0.658228    0.000000
    22  C     c     0.890105    0.123972    0.730247    0.000000
    23  C     c     0.496519    0.595458    0.414102    0.000000
    24  C     c     0.651045    0.704783    0.885114    0.000000
    25  C     c     0.640540    0.585876    0.027485    0.000000
    26  C     c     0.788358    0.977208    0.718709    0.000000
    27  C     c     0.475379    0.452939    0.577537    0.000000
    28  C     c     0.359522    0.637316    0.142075    0.000000
    29  C     c     0.589524    0.953936    0.694232    0.000000
    30  C     c     0.716339    0.338390    0.234347    0.000000
    31  C     c     0.011018    0.199187    0.156682    0.000000
    32  C     c     0.971193    0.393783    0.898502    0.000000
    33  C     c     0.503058    0.788978    0.790001    0.000000
    34  C     c     0.851773    0.134544    0.038244    0.000000
    35  C     c     0.353984    0.177131    0.713857    0.000000
    36  C     c     0.114370    0.477589    0.451289    0.000000
    37  C     c     0.186100    0.170105    0.082364    0.000000
    38  C     c     0.281878    0.397292    0.518643    0.000000
    39  C     c     0.100190    0.672449    0.423182    0.000000
    40  C     c     0.932698    0.497419    0.040230    0.000000
    41  C     c     0.835517    0.243005    0.875333    0.000000
    42  C     c     0.377889    0.215687    0.169419    0.000000
    43  C     c     0.392963    0.114551    0.511275    0.000000
    44  C     c     0.977148    0.709673    0.269898    0.000000
    45  C     c     0.396857    0.277225    0.372105    0.000000
    46  C     c     0.560890    0.397928    0.340720    0.000000
    47  C     c     0.305748    0.764784    0.791514    0.000000
    48  C     c     0.921505    0.895283    0.214804    0.000000
    49  C     c     0.766440    0.483683    0.107700    0.000000
    50  C     c     0.252835    0.803093    0.417070    0.000000
    51  C     c     0.703286    0.552761    0.414555    0.000000
    52  C     c     0.955067    0.748494    0.535935    0.000000
    53  C     c     0.228971    0.605516    0.868732    0.000000
    54  C     c     0.039955    0.615345    0.117220    0.000000
    55  C     c     0.625364    0.285168    0.849680    0.000000
    56  C     c     0.437334    0.016154    0.971962    0.000000
    57  C     c     0.519201    0.911274    0.290220    0.000000
    58  C     c     0.204164    0.639872    0.051516    0.000000
    59  C     c     0.036306    0.208797    0.617153    0.000000
    60  C     c     0.255737    0.959979    0.495954    0.000000
    61  C     c     0.712093    0.893788    0.374854    0.000000
    62  C     c     0.241527    0.012321    0.956034    0.000000
    63  C     c     0.515275    0.101506    0.811528    0.000000
    64  C     c     0.199046    0.303844    0.672525    0.000000
--------------------------------------------------------------------------------

  Final internal derivatives :

--------------------------------------------------------------------------------
   No.  Atomic          a             b             c           Radius
        Label          (eV)          (eV)          (eV)        (eV/Angs)
--------------------------------------------------------------------------------
      1 C     c       0.000000      0.000000      0.000000      0.000000
      2 C     c       0.003646      0.001362      0.001180      0.000000
      3 C     c      -0.003554     -0.003352     -0.003176      0.000000
      4 C     c       0.000586      0.002277      0.004931      0.000000
      5 C     c       0.004479     -0.004116      0.001355      0.000000
      6 C     c       0.005366     -0.001217     -0.001001      0.000000
      7 C     c      -0.001705     -0.000155     -0.000658      0.000000
      8 C     c      -0.002466      0.000579     -0.000384      0.000000
      9 C     c      -0.001492     -0.002404     -0.002612      0.000000
     10 C     c       0.000374     -0.000081     -0.000046      0.000000
     11 C     c       0.003415      0.004006     -0.000624      0.000000
     12 C     c       0.002621     -0.001892      0.000836      0.000000
     13 C     c       0.002304     -0.001123     -0.001628      0.000000
     14 C     c      -0.000443     -0.001181     -0.002081      0.000000
     15 C     c       0.001645     -0.000769     -0.004329      0.000000
     16 C     c      -0.005569      0.003036     -0.000216      0.000000
     17 C     c      -0.003578      0.001965     -0.002589      0.000000
     18 C     c       0.003764     -0.008917     -0.000564      0.000000
     19 C     c      -0.002044     -0.000391      0.001436      0.000000
     20 C     c       0.000457      0.000638     -0.000575      0.000000
     21 C     c      -0.002071     -0.000479     -0.005255      0.000000
     22 C     c      -0.003580     -0.004501     -0.001314      0.000000
     23 C     c       0.002783      0.000288     -0.004011      0.000000
     24 C     c      -0.000678     -0.003225      0.000795      0.000000
     25 C     c      -0.001205     -0.004172     -0.004459      0.000000
     26 C     c      -0.002882     -0.004045     -0.003781      0.000000
     27 C     c      -0.001227      0.007310      0.002893      0.000000
     28 C     c      -0.000225      0.001467      0.001399      0.000000
     29 C     c       0.004345     -0.002297      0.000289      0.000000
     30 C     c       0.001778     -0.001040     -0.001811      0.000000
     31 C     c      -0.001833     -0.000453     -0.002781      0.000000
     32 C     c       0.001182      0.000152     -0.002319      0.000000
     33 C     c       0.006807      0.000959     -0.000518      0.000000
     34 C     c      -0.002021      0.001864     -0.002028      0.000000
     35 C     c       0.001046     -0.000471      0.000337      0.000000
     36 C     c       0.002473     -0.000375      0.004682      0.000000
     37 C     c      -0.001325     -0.003100     -0.000960      0.000000
     38 C     c       0.001761     -0.000464      0.001739      0.000000
     39 C     c       0.002077     -0.000507      0.003013      0.000000
     40 C     c       0.002390     -0.001185     -0.001171      0.000000
     41 C     c      -0.001898      0.002424     -0.002052      0.000000
     42 C     c       0.002586      0.001554      0.001026      0.000000
     43 C     c      -0.001562      0.001403     -0.005807      0.000000
     44 C     c      -0.001276     -0.001698      0.000893      0.000000
     45 C     c       0.005157      0.002555      0.002897      0.000000
     46 C     c       0.004437     -0.006303     -0.002609      0.000000
     47 C     c      -0.001919     -0.002020     -0.003731      0.000000
     48 C     c      -0.000547      0.001673      0.003061      0.000000
     49 C     c       0.000491      0.000003     -0.003872      0.000000
     50 C     c       0.003051     -0.000494      0.000714      0.000000
     51 C     c       0.001002     -0.000118     -0.006494      0.000000
     52 C     c       0.001544     -0.001047     -0.000178      0.000000
     53 C     c      -0.002322     -0.001168      0.000005      0.000000
     54 C     c       0.000560     -0.000149      0.000090      0.000000
     55 C     c      -0.001748     -0.003264     -0.000690      0.000000
     56 C     c      -0.000704     -0.000751      0.002536      0.000000
     57 C     c       0.002081      0.001381     -0.003737      0.000000
     58 C     c      -0.000208      0.003411     -0.000551      0.000000
     59 C     c      -0.001890     -0.000674     -0.003152      0.000000
     60 C     c      -0.000723      0.000922     -0.002335      0.000000
     61 C     c       0.002592      0.002231     -0.000225      0.000000
     62 C     c      -0.000281     -0.000419      0.001302      0.000000
     63 C     c      -0.001663     -0.002965      0.003271      0.000000
     64 C     c       0.001402     -0.000652      0.000842      0.000000
--------------------------------------------------------------------------------
  Maximum abs         0.006807      0.008917      0.006494      0.000000
--------------------------------------------------------------------------------


  Time to end of optimisation =       1.6435 seconds


  Peak dynamic memory used =       2.01 MB 


  Timing analysis for GULP :

--------------------------------------------------------------------------------
  Task / Subroutine                                          Time (Seconds)
--------------------------------------------------------------------------------
  Calculation of Brenner energy and derivatives                   1.6093
--------------------------------------------------------------------------------
  Total CPU time                                                  1.6435
--------------------------------------------------------------------------------


  CIF file written as opti_1.0225.cif


  Job Finished at 13:10.26 31st July       2020                               

