********************************************************************************
*                       GENERAL UTILITY LATTICE PROGRAM                        *
*                                 Julian Gale                                  *
*                       Curtin Institute for Computation                       *
*                    School of Molecular and Life Sciences                     *
*                    Curtin University, Western Australia                      *
********************************************************************************
* Version = 5.2.0 * Last modified =  17th December 2019                        *
********************************************************************************
*  single       - perform a single point run                                   *
*  property     - calculate properties for final geometry                      *
*  phonon       - calculate phonons for final geometry                         *
********************************************************************************
* ASE calculation                                                              *
********************************************************************************


  Job Started  at 20:11.26 29th July       2020                               

  Number of CPUs =     1


  Total number of configurations input =      1

********************************************************************************
*  Input for Configuration =   1                                               *
********************************************************************************

  Formula = C64                                                         

  Number of irreducible atoms/shells =      64


  Total number atoms/shells =      64

  Dimensionality = 3               :  Bulk   



  Cartesian lattice vectors (Angstroms) :

        7.707800    0.000000    0.000000
        0.000000    7.707800    0.000000
        0.000000    0.000000    7.707800

  Cell parameters (Angstroms/Degrees):

  a =       7.7078    alpha =  90.0000
  b =       7.7078    beta  =  90.0000
  c =       7.7078    gamma =  90.0000

  Initial cell volume =         457.921792 Angs**3

  Shrinking factors =      8     8     8

  Temperature of configuration =   10.0     K 

  Pressure of configuration =         0.000 GPa 

  Fractional coordinates of asymmetric unit :

--------------------------------------------------------------------------------
   No.  Atomic       x           y          z         Charge      Occupancy
        Label      (Frac)      (Frac)     (Frac)        (e)         (Frac)  
--------------------------------------------------------------------------------
      1 C     c    0.476040    0.519880    0.065020     0.00000    1.000000    
      2 C     c    0.408340    0.736630    0.309780     0.00000    1.000000    
      3 C     c    0.290490    0.262830    0.910360     0.00000    1.000000    
      4 C     c    0.103880    0.007940    0.618540     0.00000    1.000000    
      5 C     c    0.956120    0.855310    0.884400     0.00000    1.000000    
      6 C     c    0.796090    0.476340    0.584150     0.00000    1.000000    
      7 C     c    0.616830    0.411700    0.680150     0.00000    1.000000    
      8 C     c    0.787040    0.713290    0.341740     0.00000    1.000000    
      9 C     c    0.885240    0.242430    0.328600     0.00000    1.000000    
     10 C     c    0.689230    0.158170    0.144340     0.00000    1.000000    
     11 C     c    0.869190    0.034270    0.364330     0.00000    1.000000    
     12 C     c    0.950320    0.931420    0.524370     0.00000    1.000000    
     13 C     c    0.517370    0.058000    0.153100     0.00000    1.000000    
     14 C     c    0.549220    0.977930    0.498830     0.00000    1.000000    
     15 C     c    0.468790    0.329600    0.001300     0.00000    1.000000    
     16 C     c    0.950360    0.349200    0.490680     0.00000    1.000000    
     17 C     c    0.159200    0.419500    0.833120     0.00000    1.000000    
     18 C     c    0.829590    0.735280    0.815610     0.00000    1.000000    
     19 C     c    0.910250    0.946020    0.040000     0.00000    1.000000    
     20 C     c    0.143700    0.916010    0.799960     0.00000    1.000000    
     21 C     c    0.869570    0.648500    0.658230     0.00000    1.000000    
     22 C     c    0.890100    0.123970    0.730250     0.00000    1.000000    
     23 C     c    0.496520    0.595460    0.414100     0.00000    1.000000    
     24 C     c    0.651050    0.704780    0.885110     0.00000    1.000000    
     25 C     c    0.640540    0.585880    0.027490     0.00000    1.000000    
     26 C     c    0.788360    0.977210    0.718710     0.00000    1.000000    
     27 C     c    0.475380    0.452940    0.577540     0.00000    1.000000    
     28 C     c    0.359520    0.637320    0.142080     0.00000    1.000000    
     29 C     c    0.589520    0.953940    0.694230     0.00000    1.000000    
     30 C     c    0.716340    0.338390    0.234350     0.00000    1.000000    
     31 C     c    0.011020    0.199190    0.156680     0.00000    1.000000    
     32 C     c    0.971190    0.393780    0.898500     0.00000    1.000000    
     33 C     c    0.503060    0.788980    0.790000     0.00000    1.000000    
     34 C     c    0.851770    0.134540    0.038240     0.00000    1.000000    
     35 C     c    0.353980    0.177130    0.713860     0.00000    1.000000    
     36 C     c    0.114370    0.477590    0.451290     0.00000    1.000000    
     37 C     c    0.186100    0.170100    0.082360     0.00000    1.000000    
     38 C     c    0.281880    0.397290    0.518640     0.00000    1.000000    
     39 C     c    0.100190    0.672450    0.423180     0.00000    1.000000    
     40 C     c    0.932700    0.497420    0.040230     0.00000    1.000000    
     41 C     c    0.835520    0.243000    0.875330     0.00000    1.000000    
     42 C     c    0.377890    0.215690    0.169420     0.00000    1.000000    
     43 C     c    0.392960    0.114550    0.511280     0.00000    1.000000    
     44 C     c    0.977150    0.709670    0.269900     0.00000    1.000000    
     45 C     c    0.396860    0.277220    0.372100     0.00000    1.000000    
     46 C     c    0.560890    0.397930    0.340720     0.00000    1.000000    
     47 C     c    0.305750    0.764780    0.791510     0.00000    1.000000    
     48 C     c    0.921500    0.895280    0.214800     0.00000    1.000000    
     49 C     c    0.766440    0.483680    0.107700     0.00000    1.000000    
     50 C     c    0.252830    0.803090    0.417070     0.00000    1.000000    
     51 C     c    0.703290    0.552760    0.414550     0.00000    1.000000    
     52 C     c    0.955070    0.748490    0.535940     0.00000    1.000000    
     53 C     c    0.228970    0.605520    0.868730     0.00000    1.000000    
     54 C     c    0.039960    0.615350    0.117220     0.00000    1.000000    
     55 C     c    0.625360    0.285170    0.849680     0.00000    1.000000    
     56 C     c    0.437330    0.016150    0.971960     0.00000    1.000000    
     57 C     c    0.519200    0.911270    0.290220     0.00000    1.000000    
     58 C     c    0.204160    0.639870    0.051520     0.00000    1.000000    
     59 C     c    0.036310    0.208800    0.617150     0.00000    1.000000    
     60 C     c    0.255740    0.959980    0.495950     0.00000    1.000000    
     61 C     c    0.712090    0.893790    0.374850     0.00000    1.000000    
     62 C     c    0.241530    0.012320    0.956030     0.00000    1.000000    
     63 C     c    0.515280    0.101510    0.811530     0.00000    1.000000    
     64 C     c    0.199050    0.303840    0.672530     0.00000    1.000000    
--------------------------------------------------------------------------------


  Brillouin zone sampling points :

--------------------------------------------------------------------------------
  Point number          x          y          z            Weight
--------------------------------------------------------------------------------
        1           0.062500   0.062500   0.062500     0.00390625
        2           0.062500   0.062500   0.187500     0.00390625
        3           0.062500   0.062500   0.312500     0.00390625
        4           0.062500   0.062500   0.437500     0.00390625
        5           0.062500   0.062500   0.562500     0.00390625
        6           0.062500   0.062500   0.687500     0.00390625
        7           0.062500   0.062500   0.812500     0.00390625
        8           0.062500   0.062500   0.937500     0.00390625
        9           0.062500   0.187500   0.062500     0.00390625
       10           0.062500   0.187500   0.187500     0.00390625
       11           0.062500   0.187500   0.312500     0.00390625
       12           0.062500   0.187500   0.437500     0.00390625
       13           0.062500   0.187500   0.562500     0.00390625
       14           0.062500   0.187500   0.687500     0.00390625
       15           0.062500   0.187500   0.812500     0.00390625
       16           0.062500   0.187500   0.937500     0.00390625
       17           0.062500   0.312500   0.062500     0.00390625
       18           0.062500   0.312500   0.187500     0.00390625
       19           0.062500   0.312500   0.312500     0.00390625
       20           0.062500   0.312500   0.437500     0.00390625
       21           0.062500   0.312500   0.562500     0.00390625
       22           0.062500   0.312500   0.687500     0.00390625
       23           0.062500   0.312500   0.812500     0.00390625
       24           0.062500   0.312500   0.937500     0.00390625
       25           0.062500   0.437500   0.062500     0.00390625
       26           0.062500   0.437500   0.187500     0.00390625
       27           0.062500   0.437500   0.312500     0.00390625
       28           0.062500   0.437500   0.437500     0.00390625
       29           0.062500   0.437500   0.562500     0.00390625
       30           0.062500   0.437500   0.687500     0.00390625
       31           0.062500   0.437500   0.812500     0.00390625
       32           0.062500   0.437500   0.937500     0.00390625
       33           0.062500   0.562500   0.062500     0.00390625
       34           0.062500   0.562500   0.187500     0.00390625
       35           0.062500   0.562500   0.312500     0.00390625
       36           0.062500   0.562500   0.437500     0.00390625
       37           0.062500   0.562500   0.562500     0.00390625
       38           0.062500   0.562500   0.687500     0.00390625
       39           0.062500   0.562500   0.812500     0.00390625
       40           0.062500   0.562500   0.937500     0.00390625
       41           0.062500   0.687500   0.062500     0.00390625
       42           0.062500   0.687500   0.187500     0.00390625
       43           0.062500   0.687500   0.312500     0.00390625
       44           0.062500   0.687500   0.437500     0.00390625
       45           0.062500   0.687500   0.562500     0.00390625
       46           0.062500   0.687500   0.687500     0.00390625
       47           0.062500   0.687500   0.812500     0.00390625
       48           0.062500   0.687500   0.937500     0.00390625
       49           0.062500   0.812500   0.062500     0.00390625
       50           0.062500   0.812500   0.187500     0.00390625
       51           0.062500   0.812500   0.312500     0.00390625
       52           0.062500   0.812500   0.437500     0.00390625
       53           0.062500   0.812500   0.562500     0.00390625
       54           0.062500   0.812500   0.687500     0.00390625
       55           0.062500   0.812500   0.812500     0.00390625
       56           0.062500   0.812500   0.937500     0.00390625
       57           0.062500   0.937500   0.062500     0.00390625
       58           0.062500   0.937500   0.187500     0.00390625
       59           0.062500   0.937500   0.312500     0.00390625
       60           0.062500   0.937500   0.437500     0.00390625
       61           0.062500   0.937500   0.562500     0.00390625
       62           0.062500   0.937500   0.687500     0.00390625
       63           0.062500   0.937500   0.812500     0.00390625
       64           0.062500   0.937500   0.937500     0.00390625
       65           0.187500   0.062500   0.062500     0.00390625
       66           0.187500   0.062500   0.187500     0.00390625
       67           0.187500   0.062500   0.312500     0.00390625
       68           0.187500   0.062500   0.437500     0.00390625
       69           0.187500   0.062500   0.562500     0.00390625
       70           0.187500   0.062500   0.687500     0.00390625
       71           0.187500   0.062500   0.812500     0.00390625
       72           0.187500   0.062500   0.937500     0.00390625
       73           0.187500   0.187500   0.062500     0.00390625
       74           0.187500   0.187500   0.187500     0.00390625
       75           0.187500   0.187500   0.312500     0.00390625
       76           0.187500   0.187500   0.437500     0.00390625
       77           0.187500   0.187500   0.562500     0.00390625
       78           0.187500   0.187500   0.687500     0.00390625
       79           0.187500   0.187500   0.812500     0.00390625
       80           0.187500   0.187500   0.937500     0.00390625
       81           0.187500   0.312500   0.062500     0.00390625
       82           0.187500   0.312500   0.187500     0.00390625
       83           0.187500   0.312500   0.312500     0.00390625
       84           0.187500   0.312500   0.437500     0.00390625
       85           0.187500   0.312500   0.562500     0.00390625
       86           0.187500   0.312500   0.687500     0.00390625
       87           0.187500   0.312500   0.812500     0.00390625
       88           0.187500   0.312500   0.937500     0.00390625
       89           0.187500   0.437500   0.062500     0.00390625
       90           0.187500   0.437500   0.187500     0.00390625
       91           0.187500   0.437500   0.312500     0.00390625
       92           0.187500   0.437500   0.437500     0.00390625
       93           0.187500   0.437500   0.562500     0.00390625
       94           0.187500   0.437500   0.687500     0.00390625
       95           0.187500   0.437500   0.812500     0.00390625
       96           0.187500   0.437500   0.937500     0.00390625
       97           0.187500   0.562500   0.062500     0.00390625
       98           0.187500   0.562500   0.187500     0.00390625
       99           0.187500   0.562500   0.312500     0.00390625
      100           0.187500   0.562500   0.437500     0.00390625
      101           0.187500   0.562500   0.562500     0.00390625
      102           0.187500   0.562500   0.687500     0.00390625
      103           0.187500   0.562500   0.812500     0.00390625
      104           0.187500   0.562500   0.937500     0.00390625
      105           0.187500   0.687500   0.062500     0.00390625
      106           0.187500   0.687500   0.187500     0.00390625
      107           0.187500   0.687500   0.312500     0.00390625
      108           0.187500   0.687500   0.437500     0.00390625
      109           0.187500   0.687500   0.562500     0.00390625
      110           0.187500   0.687500   0.687500     0.00390625
      111           0.187500   0.687500   0.812500     0.00390625
      112           0.187500   0.687500   0.937500     0.00390625
      113           0.187500   0.812500   0.062500     0.00390625
      114           0.187500   0.812500   0.187500     0.00390625
      115           0.187500   0.812500   0.312500     0.00390625
      116           0.187500   0.812500   0.437500     0.00390625
      117           0.187500   0.812500   0.562500     0.00390625
      118           0.187500   0.812500   0.687500     0.00390625
      119           0.187500   0.812500   0.812500     0.00390625
      120           0.187500   0.812500   0.937500     0.00390625
      121           0.187500   0.937500   0.062500     0.00390625
      122           0.187500   0.937500   0.187500     0.00390625
      123           0.187500   0.937500   0.312500     0.00390625
      124           0.187500   0.937500   0.437500     0.00390625
      125           0.187500   0.937500   0.562500     0.00390625
      126           0.187500   0.937500   0.687500     0.00390625
      127           0.187500   0.937500   0.812500     0.00390625
      128           0.187500   0.937500   0.937500     0.00390625
      129           0.312500   0.062500   0.062500     0.00390625
      130           0.312500   0.062500   0.187500     0.00390625
      131           0.312500   0.062500   0.312500     0.00390625
      132           0.312500   0.062500   0.437500     0.00390625
      133           0.312500   0.062500   0.562500     0.00390625
      134           0.312500   0.062500   0.687500     0.00390625
      135           0.312500   0.062500   0.812500     0.00390625
      136           0.312500   0.062500   0.937500     0.00390625
      137           0.312500   0.187500   0.062500     0.00390625
      138           0.312500   0.187500   0.187500     0.00390625
      139           0.312500   0.187500   0.312500     0.00390625
      140           0.312500   0.187500   0.437500     0.00390625
      141           0.312500   0.187500   0.562500     0.00390625
      142           0.312500   0.187500   0.687500     0.00390625
      143           0.312500   0.187500   0.812500     0.00390625
      144           0.312500   0.187500   0.937500     0.00390625
      145           0.312500   0.312500   0.062500     0.00390625
      146           0.312500   0.312500   0.187500     0.00390625
      147           0.312500   0.312500   0.312500     0.00390625
      148           0.312500   0.312500   0.437500     0.00390625
      149           0.312500   0.312500   0.562500     0.00390625
      150           0.312500   0.312500   0.687500     0.00390625
      151           0.312500   0.312500   0.812500     0.00390625
      152           0.312500   0.312500   0.937500     0.00390625
      153           0.312500   0.437500   0.062500     0.00390625
      154           0.312500   0.437500   0.187500     0.00390625
      155           0.312500   0.437500   0.312500     0.00390625
      156           0.312500   0.437500   0.437500     0.00390625
      157           0.312500   0.437500   0.562500     0.00390625
      158           0.312500   0.437500   0.687500     0.00390625
      159           0.312500   0.437500   0.812500     0.00390625
      160           0.312500   0.437500   0.937500     0.00390625
      161           0.312500   0.562500   0.062500     0.00390625
      162           0.312500   0.562500   0.187500     0.00390625
      163           0.312500   0.562500   0.312500     0.00390625
      164           0.312500   0.562500   0.437500     0.00390625
      165           0.312500   0.562500   0.562500     0.00390625
      166           0.312500   0.562500   0.687500     0.00390625
      167           0.312500   0.562500   0.812500     0.00390625
      168           0.312500   0.562500   0.937500     0.00390625
      169           0.312500   0.687500   0.062500     0.00390625
      170           0.312500   0.687500   0.187500     0.00390625
      171           0.312500   0.687500   0.312500     0.00390625
      172           0.312500   0.687500   0.437500     0.00390625
      173           0.312500   0.687500   0.562500     0.00390625
      174           0.312500   0.687500   0.687500     0.00390625
      175           0.312500   0.687500   0.812500     0.00390625
      176           0.312500   0.687500   0.937500     0.00390625
      177           0.312500   0.812500   0.062500     0.00390625
      178           0.312500   0.812500   0.187500     0.00390625
      179           0.312500   0.812500   0.312500     0.00390625
      180           0.312500   0.812500   0.437500     0.00390625
      181           0.312500   0.812500   0.562500     0.00390625
      182           0.312500   0.812500   0.687500     0.00390625
      183           0.312500   0.812500   0.812500     0.00390625
      184           0.312500   0.812500   0.937500     0.00390625
      185           0.312500   0.937500   0.062500     0.00390625
      186           0.312500   0.937500   0.187500     0.00390625
      187           0.312500   0.937500   0.312500     0.00390625
      188           0.312500   0.937500   0.437500     0.00390625
      189           0.312500   0.937500   0.562500     0.00390625
      190           0.312500   0.937500   0.687500     0.00390625
      191           0.312500   0.937500   0.812500     0.00390625
      192           0.312500   0.937500   0.937500     0.00390625
      193           0.437500   0.062500   0.062500     0.00390625
      194           0.437500   0.062500   0.187500     0.00390625
      195           0.437500   0.062500   0.312500     0.00390625
      196           0.437500   0.062500   0.437500     0.00390625
      197           0.437500   0.062500   0.562500     0.00390625
      198           0.437500   0.062500   0.687500     0.00390625
      199           0.437500   0.062500   0.812500     0.00390625
      200           0.437500   0.062500   0.937500     0.00390625
      201           0.437500   0.187500   0.062500     0.00390625
      202           0.437500   0.187500   0.187500     0.00390625
      203           0.437500   0.187500   0.312500     0.00390625
      204           0.437500   0.187500   0.437500     0.00390625
      205           0.437500   0.187500   0.562500     0.00390625
      206           0.437500   0.187500   0.687500     0.00390625
      207           0.437500   0.187500   0.812500     0.00390625
      208           0.437500   0.187500   0.937500     0.00390625
      209           0.437500   0.312500   0.062500     0.00390625
      210           0.437500   0.312500   0.187500     0.00390625
      211           0.437500   0.312500   0.312500     0.00390625
      212           0.437500   0.312500   0.437500     0.00390625
      213           0.437500   0.312500   0.562500     0.00390625
      214           0.437500   0.312500   0.687500     0.00390625
      215           0.437500   0.312500   0.812500     0.00390625
      216           0.437500   0.312500   0.937500     0.00390625
      217           0.437500   0.437500   0.062500     0.00390625
      218           0.437500   0.437500   0.187500     0.00390625
      219           0.437500   0.437500   0.312500     0.00390625
      220           0.437500   0.437500   0.437500     0.00390625
      221           0.437500   0.437500   0.562500     0.00390625
      222           0.437500   0.437500   0.687500     0.00390625
      223           0.437500   0.437500   0.812500     0.00390625
      224           0.437500   0.437500   0.937500     0.00390625
      225           0.437500   0.562500   0.062500     0.00390625
      226           0.437500   0.562500   0.187500     0.00390625
      227           0.437500   0.562500   0.312500     0.00390625
      228           0.437500   0.562500   0.437500     0.00390625
      229           0.437500   0.562500   0.562500     0.00390625
      230           0.437500   0.562500   0.687500     0.00390625
      231           0.437500   0.562500   0.812500     0.00390625
      232           0.437500   0.562500   0.937500     0.00390625
      233           0.437500   0.687500   0.062500     0.00390625
      234           0.437500   0.687500   0.187500     0.00390625
      235           0.437500   0.687500   0.312500     0.00390625
      236           0.437500   0.687500   0.437500     0.00390625
      237           0.437500   0.687500   0.562500     0.00390625
      238           0.437500   0.687500   0.687500     0.00390625
      239           0.437500   0.687500   0.812500     0.00390625
      240           0.437500   0.687500   0.937500     0.00390625
      241           0.437500   0.812500   0.062500     0.00390625
      242           0.437500   0.812500   0.187500     0.00390625
      243           0.437500   0.812500   0.312500     0.00390625
      244           0.437500   0.812500   0.437500     0.00390625
      245           0.437500   0.812500   0.562500     0.00390625
      246           0.437500   0.812500   0.687500     0.00390625
      247           0.437500   0.812500   0.812500     0.00390625
      248           0.437500   0.812500   0.937500     0.00390625
      249           0.437500   0.937500   0.062500     0.00390625
      250           0.437500   0.937500   0.187500     0.00390625
      251           0.437500   0.937500   0.312500     0.00390625
      252           0.437500   0.937500   0.437500     0.00390625
      253           0.437500   0.937500   0.562500     0.00390625
      254           0.437500   0.937500   0.687500     0.00390625
      255           0.437500   0.937500   0.812500     0.00390625
      256           0.437500   0.937500   0.937500     0.00390625
--------------------------------------------------------------------------------


********************************************************************************
*  General input information                                                   *
********************************************************************************

  Species output for all configurations : 

--------------------------------------------------------------------------------
  Species    Type    Atomic    Atomic    Charge       Radii (Angs)     Library
                     Number     Mass       (e)     Cova   Ionic  VDW   Symbol
--------------------------------------------------------------------------------
    C        Core        6      12.01   0.000000   0.770  0.000  1.530          
--------------------------------------------------------------------------------


  Lattice summation method               =    Ewald          (3-D)
                                         =    Parry          (2-D)
                                         =    Saunders et al (1-D)
  Accuracy factor for lattice sums       =   12.000


  Analytic derivatives to be used

  Time limit = Infinity

  Maximum range for interatomic potentials =    100000.000000 Angstroms

  Brenner et al 2002 potential to be used with explicit splines for P


********************************************************************************
*  Output for configuration   1                                                *
********************************************************************************


  Components of energy : 

--------------------------------------------------------------------------------
  Interatomic potentials     =           0.00000000 eV    
  Brenner potentials         =        -421.65299933 eV    
  Monopole - monopole (real) =           0.00000000 eV    
  Monopole - monopole (recip)=           0.00000000 eV    
  Monopole - monopole (total)=           0.00000000 eV    
--------------------------------------------------------------------------------
  Total lattice energy       =        -421.65299933 eV    
--------------------------------------------------------------------------------
  Total lattice energy       =          -40683.0689 kJ/(mole unit cells)
--------------------------------------------------------------------------------


  Elastic Constant Matrix: (Units=GPa)

-------------------------------------------------------------------------------
  Indices      1         2         3         4         5         6    
-------------------------------------------------------------------------------
       1    503.9362  183.8258  163.6031   22.2475  -35.3129   25.3324
       2    183.8258  352.2836  150.9638   -2.1233    3.3682   21.1020
       3    163.6031  150.9638  397.6525    7.1259  -51.0548  -13.4620
       4     22.2475   -2.1233    7.1259  144.5948  -27.6872   -8.5038
       5    -35.3129    3.3682  -51.0548  -27.6872  124.4199   26.9087
       6     25.3324   21.1020  -13.4620   -8.5038   26.9087  132.0843
-------------------------------------------------------------------------------


  Elastic Compliance Matrix: (Units=1/GPa)

-------------------------------------------------------------------------------
  Indices      1         2         3         4         5         6    
-------------------------------------------------------------------------------
       1    0.002669 -0.001103 -0.000617 -0.000317  0.000580 -0.000537
       2   -0.001103  0.003941 -0.001158  0.000112 -0.000791 -0.000368
       3   -0.000617 -0.001158  0.003372  0.000163  0.001186  0.000416
       4   -0.000317  0.000112  0.000163  0.007267  0.001545  0.000213
       5    0.000580 -0.000791  0.001186  0.001545  0.009418 -0.001683
       6   -0.000537 -0.000368  0.000416  0.000213 -0.001683  0.008132
-------------------------------------------------------------------------------

  Mechanical properties :

-------------------------------------------------------------------------------
  Convention :                    Reuss         Voigt         Hill
-------------------------------------------------------------------------------
  Bulk  Modulus (GPa)     =     236.73688     250.07310     243.40499
  Shear Modulus (GPa)     =     119.15178     130.58509     124.86844
-------------------------------------------------------------------------------
  Velocity S-wave (km/s)  =       6.53817       6.84468       6.69318
  Velocity P-wave (km/s)  =      11.91345      12.33629      12.12671
-------------------------------------------------------------------------------
  Compressibility (1/GPa) =    0.00422410
-------------------------------------------------------------------------------
  Stress axis :                     x             y             z
-------------------------------------------------------------------------------
  Youngs Moduli (GPa)     =     374.68920     253.74470     296.57734
-------------------------------------------------------------------------------
  Poissons Ratio (x)      =                     0.28000       0.18305
  Poissons Ratio (y)      =       0.41345                     0.34347
  Poissons Ratio (z)      =       0.23126       0.29387
-------------------------------------------------------------------------------


  Piezoelectric Strain Matrix: (Units=C/m**2)

-------------------------------------------------------------------------------
  Indices      1         2         3         4         5         6    
-------------------------------------------------------------------------------
       x    -0.00000  -0.00000  -0.00000  -0.00000  -0.00000  -0.00000
       y    -0.00000  -0.00000  -0.00000  -0.00000  -0.00000  -0.00000
       z    -0.00000  -0.00000  -0.00000  -0.00000  -0.00000  -0.00000
-------------------------------------------------------------------------------


  Piezoelectric Stress Matrix: (Units=10**-11 C/N)

-------------------------------------------------------------------------------
  Indices      1         2         3         4         5         6    
-------------------------------------------------------------------------------
       x     0.00000   0.00000   0.00000   0.00000   0.00000   0.00000
       y     0.00000   0.00000   0.00000   0.00000   0.00000   0.00000
       z     0.00000   0.00000   0.00000   0.00000   0.00000   0.00000
-------------------------------------------------------------------------------


  Static dielectric constant tensor : 

-------------------------------------------------------------------------------
              x         y         z
-------------------------------------------------------------------------------
       x     1.00000   0.00000   0.00000
       y     0.00000   1.00000   0.00000
       z     0.00000   0.00000   1.00000
--------------------------------------------------------------------------------

  Static refractive indices : 

-------------------------------------------------------------------------------
    1 =    1.00000      2 =    1.00000      3 =    1.00000
-------------------------------------------------------------------------------


  Phonon Calculation : 

  Number of k points for this configuration =      256

--------------------------------------------------------------------------------
  K point      1 =   0.062500  0.062500  0.062500  Weight =    0.004
--------------------------------------------------------------------------------

  Frequencies (cm-1) [NB: Negative implies an imaginary mode]:

   26.14   33.41   56.71  146.05  177.91  212.02  222.36  230.07  236.58
  250.42  258.13  263.91  271.51  279.66  288.71  300.34  303.24  311.89
  322.08  327.07  332.55  342.32  347.88  362.12  367.22  374.54  385.35
  392.84  398.24  404.96  408.34  416.33  425.91  430.41  436.15  445.00
  446.70  454.57  461.80  466.30  472.44  483.83  488.12  501.58  504.66
  515.06  521.67  531.10  536.34  544.97  553.65  557.88  568.51  573.95
  580.05  589.60  593.00  599.53  604.03  609.65  615.76  625.51  630.28
  637.17  646.09  655.42  659.47  663.32  675.76  676.18  686.11  694.33
  702.06  711.64  721.29  727.14  734.94  741.72  747.97  753.84  757.75
  764.05  768.92  783.14  792.72  798.73  803.53  805.38  817.34  821.24
  827.52  836.98  841.49  852.27  866.39  873.78  880.36  887.68  893.57
  901.50  913.30  918.70  927.38  931.33  942.24  950.95  954.08  963.49
  967.70  973.60  982.97  987.08  998.53 1002.34 1007.31 1019.18 1024.41
 1034.00 1038.96 1055.84 1060.08 1069.06 1078.86 1083.55 1091.43 1099.66
 1113.55 1116.69 1121.32 1134.16 1147.98 1151.50 1169.62 1180.94 1188.71
 1197.54 1207.73 1212.75 1217.10 1221.70 1230.50 1240.71 1251.92 1258.96
 1276.90 1282.30 1294.67 1296.80 1308.73 1321.28 1334.92 1354.01 1364.06
 1366.04 1376.79 1392.48 1397.69 1410.92 1429.55 1436.44 1454.63 1472.26
 1485.40 1491.71 1504.92 1516.70 1527.69 1535.57 1565.65 1607.84 1640.41
 1679.20 1711.84 1748.30 1763.30 1802.45 1823.64 1837.53 1855.02 1889.03
 1949.55 1976.79 2040.40 2232.63 2236.05 2335.16 2469.96 2571.64 2600.12
 2805.68 2815.18 3096.55


--------------------------------------------------------------------------------
  K point      2 =   0.062500  0.062500  0.187500  Weight =    0.004
--------------------------------------------------------------------------------

  Frequencies (cm-1) [NB: Negative implies an imaginary mode]:

   58.23   66.41   95.56  146.62  177.65  202.51  222.44  229.07  234.73
  248.24  254.72  258.68  265.90  277.02  292.88  299.77  303.32  311.96
  319.16  326.30  336.51  344.50  350.34  360.90  369.90  377.21  385.29
  391.43  395.72  401.53  409.70  417.24  421.93  429.13  434.69  445.43
  448.00  455.23  465.28  469.62  478.33  482.96  493.16  497.89  506.23
  515.07  523.44  531.49  532.94  543.86  553.55  558.23  565.23  571.51
  576.94  582.73  593.72  597.32  604.25  609.53  617.96  623.49  634.04
  638.19  644.90  653.62  656.81  665.95  673.92  681.19  685.90  695.98
  702.68  708.87  720.43  725.79  736.46  741.06  747.59  752.33  759.34
  764.65  769.95  783.79  792.69  798.14  802.49  806.81  817.78  821.35
  825.61  840.63  843.53  854.84  860.70  868.96  880.18  886.61  894.65
  907.30  911.29  918.91  927.77  933.53  940.14  950.86  954.56  962.30
  968.26  971.42  981.17  991.32  999.06 1004.46 1010.10 1016.73 1022.22
 1036.85 1042.55 1055.47 1060.64 1068.82 1079.22 1083.10 1090.54 1097.48
 1112.38 1116.66 1121.11 1134.22 1147.64 1152.80 1171.37 1175.46 1190.76
 1196.15 1207.39 1211.75 1216.51 1222.10 1231.16 1241.83 1253.17 1256.63
 1276.47 1282.87 1294.66 1299.29 1307.94 1321.02 1337.93 1352.85 1363.11
 1366.12 1375.81 1391.61 1397.53 1411.82 1429.20 1436.61 1455.74 1472.20
 1486.29 1491.09 1503.65 1517.16 1527.60 1536.15 1565.61 1607.56 1640.42
 1679.18 1711.83 1748.18 1763.31 1802.44 1823.68 1837.57 1854.99 1889.04
 1949.70 1976.79 2040.29 2232.63 2236.05 2335.16 2469.96 2571.67 2600.12
 2805.68 2815.17 3096.55


--------------------------------------------------------------------------------
  K point      3 =   0.062500  0.062500  0.312500  Weight =    0.004
--------------------------------------------------------------------------------

  Frequencies (cm-1) [NB: Negative implies an imaginary mode]:

   87.92   95.94  132.07  161.45  176.44  194.12  215.25  222.75  233.33
  240.03  247.36  257.02  264.20  273.36  295.66  297.76  304.20  309.08
  319.68  322.15  339.71  348.42  350.97  359.77  370.38  374.48  385.41
  387.41  392.55  401.51  413.40  415.28  423.32  427.86  438.53  447.67
  452.77  457.72  465.07  472.05  480.74  483.89  493.76  499.93  511.55
  514.15  520.99  528.60  534.34  539.96  552.01  558.94  564.11  568.40
  573.79  578.63  589.86  595.40  603.54  610.87  619.68  622.33  630.87
  634.80  646.34  652.94  659.83  664.73  677.03  681.37  684.47  694.35
  703.24  710.50  722.72  726.74  732.65  741.30  746.66  753.49  756.75
  767.36  776.56  781.56  788.44  799.21  802.82  808.20  816.74  822.58
  830.47  841.86  847.30  853.00  856.59  865.02  878.26  885.03  897.64
  906.70  913.46  915.45  926.43  935.41  940.21  952.92  954.30  958.83
  967.72  972.92  982.58  992.81  996.80 1007.56 1011.12 1016.77 1025.35
 1039.77 1046.01 1054.54 1061.74 1069.63 1077.66 1084.33 1088.64 1092.68
 1110.81 1113.62 1125.08 1134.31 1147.49 1154.24 1168.77 1175.36 1191.30
 1195.14 1206.03 1209.59 1215.74 1223.04 1231.74 1241.58 1252.48 1257.11
 1275.83 1283.66 1294.11 1303.68 1307.49 1320.84 1341.06 1351.63 1362.38
 1365.51 1373.86 1390.40 1397.55 1413.56 1428.65 1436.77 1457.13 1471.98
 1487.41 1490.36 1502.02 1517.73 1527.36 1537.04 1565.54 1607.16 1640.44
 1679.15 1711.81 1748.00 1763.33 1802.43 1823.73 1837.63 1854.95 1889.04
 1949.92 1976.78 2040.13 2232.63 2236.05 2335.16 2469.96 2571.72 2600.12
 2805.68 2815.15 3096.55


--------------------------------------------------------------------------------
  K point      4 =   0.062500  0.062500  0.437500  Weight =    0.004
--------------------------------------------------------------------------------

  Frequencies (cm-1) [NB: Negative implies an imaginary mode]:

   98.09  126.84  145.70  165.06  187.32  195.98  206.90  218.25  226.15
  233.45  246.64  259.84  265.30  273.38  290.06  295.07  298.89  307.35
  313.19  327.12  341.08  348.18  350.54  356.43  365.83  376.89  381.52
  385.74  397.43  400.38  412.27  419.95  427.04  429.92  438.44  450.69
  455.52  462.56  465.35  473.69  478.45  485.20  493.97  500.88  507.39
  515.41  518.24  530.45  536.06  539.49  548.41  559.65  563.69  568.54
  573.45  576.03  585.62  593.34  603.35  609.85  617.86  622.56  630.15
  631.48  648.96  653.78  657.56  664.89  678.11  680.01  684.38  693.02
  703.59  713.99  722.58  730.40  735.07  738.69  746.92  752.54  755.56
  767.97  776.18  781.79  788.45  798.25  801.99  811.26  817.24  825.40
  834.33  840.36  845.69  852.04  857.19  865.94  875.72  883.67  899.72
  902.07  911.31  916.75  923.74  936.86  941.40  948.86  956.13  961.38
  968.78  972.39  984.56  989.28  998.72 1007.25 1011.69 1017.99 1030.98
 1041.95 1047.85 1053.65 1062.50 1070.59 1076.18 1081.24 1087.02 1092.64
 1109.87 1111.18 1127.20 1135.12 1148.48 1154.28 1165.92 1177.55 1190.07
 1195.65 1203.05 1209.69 1214.92 1222.76 1232.67 1240.46 1251.02 1258.95
 1275.35 1284.41 1293.39 1305.74 1309.40 1320.55 1341.48 1352.91 1361.66
 1364.00 1372.44 1389.72 1397.61 1415.11 1428.23 1436.77 1457.97 1471.78
 1487.75 1490.33 1500.92 1518.14 1527.11 1537.72 1565.49 1606.88 1640.46
 1679.13 1711.80 1747.89 1763.33 1802.43 1823.75 1837.68 1854.93 1889.04
 1950.07 1976.78 2040.01 2232.63 2236.04 2335.16 2469.96 2571.75 2600.12
 2805.68 2815.14 3096.55


--------------------------------------------------------------------------------
  K point      5 =   0.062500  0.062500  0.562500  Weight =    0.004
--------------------------------------------------------------------------------

  Frequencies (cm-1) [NB: Negative implies an imaginary mode]:

   92.16  137.20  148.66  160.30  187.80  199.95  208.46  214.43  222.86
  233.08  249.25  260.04  266.18  275.83  282.56  291.72  296.06  310.22
  315.27  331.58  338.07  349.81  352.24  355.46  363.88  375.49  379.69
  386.69  395.03  401.96  414.36  420.52  426.11  428.95  439.71  449.76
  452.71  464.68  466.90  477.18  480.29  486.06  492.32  501.98  506.42
  511.61  524.10  527.30  533.85  540.87  547.11  558.99  561.59  568.69
  575.88  581.02  587.29  592.82  601.39  605.86  616.40  622.03  627.71
  634.29  647.85  653.28  658.38  665.98  675.38  680.63  683.29  694.60
  706.32  714.25  723.97  730.63  735.64  737.46  749.28  753.65  754.19
  765.36  775.68  781.93  788.87  791.88  805.21  813.25  819.49  825.72
  835.16  838.67  844.45  851.29  860.03  866.33  877.68  883.93  898.02
  901.31  908.99  917.16  922.62  935.03  940.40  950.85  953.94  962.16
  969.73  974.13  984.84  990.52  997.57 1005.86 1011.95 1020.34 1031.64
 1039.64 1047.55 1053.54 1061.82 1071.63 1077.62 1079.15 1087.81 1094.45
 1109.51 1110.97 1126.36 1135.08 1149.76 1153.24 1167.25 1178.11 1189.72
 1195.22 1201.67 1210.39 1215.28 1221.93 1232.82 1239.69 1250.50 1259.12
 1276.00 1284.97 1293.04 1305.09 1311.18 1320.02 1340.58 1354.21 1360.94
 1363.32 1372.75 1389.89 1397.60 1415.41 1428.41 1436.63 1457.60 1471.94
 1486.84 1491.17 1500.90 1518.24 1527.02 1537.79 1565.49 1606.89 1640.46
 1679.13 1711.80 1747.89 1763.33 1802.42 1823.73 1837.68 1854.94 1889.04
 1950.07 1976.78 2040.01 2232.63 2236.04 2335.16 2469.96 2571.75 2600.12
 2805.68 2815.14 3096.55


--------------------------------------------------------------------------------
  K point      6 =   0.062500  0.062500  0.687500  Weight =    0.004
--------------------------------------------------------------------------------

  Frequencies (cm-1) [NB: Negative implies an imaginary mode]:

   75.99  105.79  149.66  165.49  169.33  196.39  209.87  218.38  232.23
  238.38  247.06  259.69  267.71  279.69  286.09  291.80  297.38  314.29
  319.47  330.71  340.16  348.76  352.57  357.00  363.78  372.09  379.02
  389.77  394.75  402.67  415.68  417.16  422.78  428.48  439.08  445.73
  450.87  458.26  468.98  475.81  479.63  488.97  497.54  500.10  507.63
  512.71  519.33  531.07  533.41  539.61  547.72  556.94  565.02  570.78
  576.34  584.27  589.77  594.32  600.89  608.55  618.03  621.31  625.56
  638.07  643.31  651.45  658.27  668.56  672.32  679.96  685.72  695.55
  708.99  713.74  723.19  727.80  733.47  742.07  747.80  750.51  758.51
  765.98  772.84  780.75  788.48  793.01  807.55  809.41  819.68  824.11
  832.10  838.29  847.51  853.84  861.44  863.88  880.75  886.56  897.20
  900.87  909.54  915.12  925.73  931.08  940.19  948.99  955.50  960.19
  971.09  974.97  985.50  992.93  995.17 1004.51 1010.65 1021.99 1028.89
 1034.66 1044.22 1054.13 1061.00 1072.57 1079.23 1080.34 1091.57 1094.92
 1110.55 1112.88 1123.99 1133.66 1150.43 1152.30 1169.80 1178.32 1190.09
 1194.71 1202.81 1210.60 1216.47 1222.11 1231.36 1239.55 1250.78 1258.26
 1277.28 1284.98 1293.40 1303.14 1310.25 1319.94 1339.35 1353.19 1361.78
 1364.46 1374.10 1390.76 1397.58 1414.31 1429.07 1436.43 1456.28 1472.29
 1485.78 1491.84 1501.99 1517.93 1527.17 1537.21 1565.54 1607.17 1640.44
 1679.15 1711.81 1748.01 1763.32 1802.43 1823.69 1837.64 1854.97 1889.04
 1949.92 1976.78 2040.12 2232.63 2236.05 2335.16 2469.96 2571.72 2600.12
 2805.68 2815.15 3096.55


--------------------------------------------------------------------------------
  K point      7 =   0.062500  0.062500  0.812500  Weight =    0.004
--------------------------------------------------------------------------------

  Frequencies (cm-1) [NB: Negative implies an imaginary mode]:

   55.04   69.54  106.83  153.46  175.69  199.81  213.50  229.63  235.70
  245.52  255.66  261.93  270.60  279.97  288.67  295.64  297.47  314.57
  320.55  328.09  339.10  343.29  351.29  359.88  365.85  373.55  378.53
  392.51  395.33  406.52  410.66  419.47  420.96  431.74  436.50  443.62
  448.32  456.46  466.66  470.98  476.50  484.93  491.46  500.55  508.16
  515.01  524.33  528.18  537.13  540.72  549.61  556.94  565.49  575.17
  579.99  584.38  593.40  596.84  600.75  610.81  619.01  625.00  627.89
  635.66  642.13  652.44  654.73  669.38  673.49  677.46  687.89  692.30
  708.25  715.18  723.79  727.63  731.61  741.01  746.18  752.24  758.11
  767.04  772.71  782.62  787.14  796.27  803.27  808.58  818.40  821.47
  829.79  841.51  846.42  850.72  863.81  870.03  880.34  887.57  893.36
  902.28  911.06  917.28  926.80  930.08  940.68  946.61  955.74  962.04
  970.73  974.90  982.74  992.82  996.19 1002.88 1007.62 1022.12 1026.78
 1033.25 1039.85 1054.94 1060.36 1072.05 1078.37 1082.08 1093.85 1097.32
 1111.67 1116.00 1121.47 1133.33 1148.97 1152.60 1169.47 1181.14 1189.28
 1195.77 1205.55 1211.05 1216.62 1223.54 1229.23 1239.43 1251.32 1258.30
 1277.87 1284.22 1294.02 1299.88 1309.20 1320.49 1336.65 1353.45 1362.68
 1365.89 1375.60 1391.82 1397.67 1412.63 1429.59 1436.33 1454.93 1472.41
 1485.10 1492.13 1503.65 1517.31 1527.43 1536.33 1565.60 1607.57 1640.42
 1679.18 1711.83 1748.18 1763.30 1802.44 1823.64 1837.58 1855.01 1889.04
 1949.70 1976.78 2040.28 2232.63 2236.05 2335.16 2469.96 2571.67 2600.12
 2805.68 2815.17 3096.55


--------------------------------------------------------------------------------
  K point      8 =   0.062500  0.062500  0.937500  Weight =    0.004
--------------------------------------------------------------------------------

  Frequencies (cm-1) [NB: Negative implies an imaginary mode]:

   34.63   35.46   56.91  148.95  177.98  208.17  220.95  227.81  239.32
  250.57  261.86  263.41  270.08  280.38  290.89  294.96  302.59  313.07
  322.11  328.65  332.59  342.07  347.36  361.71  364.95  375.47  382.95
  391.26  399.00  404.54  410.18  418.80  424.96  429.96  438.71  443.45
  447.84  456.05  462.04  465.89  472.89  481.19  489.81  499.72  506.23
  516.14  521.61  532.02  537.94  541.88  552.49  559.43  565.14  574.91
  584.31  588.78  596.05  597.28  603.48  608.72  616.62  626.27  628.76
  634.06  647.17  652.81  657.67  666.12  673.03  678.95  686.99  688.94
  707.29  713.22  724.52  726.91  732.46  739.64  746.81  754.66  758.55
  764.23  772.55  783.28  788.37  798.87  801.01  807.67  816.80  821.68
  829.75  839.20  842.35  849.87  866.63  875.91  879.69  886.73  893.00
  900.45  913.33  919.37  924.74  930.74  942.66  948.86  954.37  963.57
  969.68  974.55  981.16  990.71  995.78 1001.72 1006.86 1021.57 1026.26
 1032.92 1037.29 1055.86 1059.82 1070.47 1078.25 1083.30 1092.57 1099.75
 1112.38 1117.21 1121.65 1133.83 1147.78 1152.08 1168.93 1183.78 1187.48
 1197.34 1207.47 1211.85 1216.90 1223.17 1229.15 1239.60 1251.50 1259.37
 1277.53 1282.88 1294.34 1297.24 1309.05 1321.17 1334.41 1354.13 1363.80
 1366.18 1376.62 1392.50 1397.80 1411.27 1429.69 1436.35 1454.30 1472.33
 1484.99 1492.08 1504.93 1516.74 1527.63 1535.65 1565.65 1607.84 1640.41
 1679.20 1711.85 1748.30 1763.29 1802.45 1823.62 1837.53 1855.03 1889.03
 1949.55 1976.78 2040.40 2232.63 2236.05 2335.16 2469.96 2571.64 2600.12
 2805.68 2815.18 3096.55


--------------------------------------------------------------------------------
  K point      9 =   0.062500  0.187500  0.062500  Weight =    0.004
--------------------------------------------------------------------------------

  Frequencies (cm-1) [NB: Negative implies an imaginary mode]:

   53.92   64.26  102.37  148.65  176.05  210.46  216.98  225.68  236.06
  250.05  253.41  261.08  272.43  280.92  282.32  297.94  305.77  312.07
  320.59  325.90  331.36  343.00  346.72  361.32  365.86  369.76  379.33
  389.12  399.26  404.23  412.72  418.47  429.89  432.27  433.10  441.86
  447.43  457.07  459.99  466.74  475.54  480.98  488.68  502.54  506.88
  516.01  525.01  526.45  535.79  549.04  552.18  555.46  565.08  572.16
  578.41  585.11  592.10  598.93  609.78  614.12  618.50  626.76  630.52
  642.96  645.10  657.28  662.86  666.98  676.52  680.82  684.52  694.48
  700.09  711.62  717.69  725.34  730.24  739.56  746.81  753.54  758.27
  764.61  769.09  784.59  787.70  795.50  803.02  807.31  818.83  820.40
  827.87  838.92  845.17  853.12  865.08  873.07  880.27  888.71  893.52
  901.27  912.48  916.80  924.67  934.97  943.71  952.12  955.33  960.78
  966.75  973.09  981.96  987.35  998.40 1001.56 1008.32 1017.19 1026.36
 1035.74 1041.17 1054.95 1061.21 1068.78 1079.57 1082.62 1090.90 1098.63
 1112.48 1116.85 1120.06 1132.00 1149.62 1156.87 1170.04 1176.27 1188.78
 1197.89 1208.35 1212.34 1216.65 1221.96 1229.00 1241.00 1250.58 1263.20
 1275.52 1282.32 1294.47 1297.41 1309.13 1321.44 1335.81 1349.90 1364.05
 1364.81 1380.26 1392.53 1398.37 1411.22 1428.29 1436.97 1454.77 1471.93
 1486.43 1490.76 1504.97 1516.48 1527.75 1535.73 1565.64 1607.77 1640.39
 1679.22 1711.86 1748.28 1763.32 1802.44 1823.68 1837.51 1855.00 1889.04
 1949.55 1976.78 2040.40 2232.64 2236.05 2335.16 2469.96 2571.64 2600.12
 2805.68 2815.18 3096.55


--------------------------------------------------------------------------------
  K point     10 =   0.062500  0.187500  0.187500  Weight =    0.004
--------------------------------------------------------------------------------

  Frequencies (cm-1) [NB: Negative implies an imaginary mode]:

   64.99   91.70  117.20  155.18  177.43  200.61  219.45  229.28  231.93
  246.45  250.52  258.32  265.56  275.31  282.89  297.68  306.49  310.89
  319.93  325.85  335.90  346.77  350.48  359.46  367.57  373.57  381.81
  387.91  396.34  402.60  412.27  418.89  423.08  431.24  434.81  441.83
  449.20  459.99  461.70  472.46  476.49  481.49  491.15  499.41  509.34
  510.95  524.19  530.47  535.44  546.34  549.36  556.24  562.56  567.73
  576.99  580.92  593.00  600.64  607.32  613.35  619.78  626.15  631.14
  640.40  645.12  657.20  663.52  666.34  677.69  681.81  687.54  695.40
  701.29  709.77  716.66  724.18  732.19  738.57  746.12  751.80  758.12
  765.23  771.56  783.02  788.17  797.10  804.96  807.94  815.73  822.28
  829.69  838.22  846.38  854.20  858.59  869.65  877.56  890.21  895.72
  907.42  912.64  916.21  924.17  936.00  944.37  950.06  955.33  961.07
  964.95  970.29  981.23  993.66  999.05 1003.60 1011.34 1015.11 1022.39
 1038.93 1044.21 1054.84 1061.64 1068.95 1077.65 1084.54 1089.18 1097.02
 1111.01 1116.05 1120.98 1131.25 1150.13 1156.31 1169.76 1173.63 1190.27
 1197.03 1207.09 1211.78 1216.99 1223.26 1229.88 1242.35 1252.04 1261.17
 1274.20 1281.97 1294.36 1298.48 1308.75 1321.19 1339.15 1350.48 1362.73
 1364.78 1378.82 1391.41 1398.37 1412.25 1427.91 1437.18 1455.83 1472.00
 1487.51 1489.79 1503.70 1516.91 1527.71 1536.29 1565.60 1607.49 1640.41
 1679.20 1711.84 1748.15 1763.33 1802.43 1823.73 1837.55 1854.96 1889.04
 1949.70 1976.78 2040.29 2232.64 2236.05 2335.16 2469.96 2571.67 2600.12
 2805.68 2815.17 3096.55


--------------------------------------------------------------------------------
  K point     11 =   0.062500  0.187500  0.312500  Weight =    0.004
--------------------------------------------------------------------------------

  Frequencies (cm-1) [NB: Negative implies an imaginary mode]:

   91.68  112.39  126.63  177.75  182.18  192.01  212.34  224.58  232.05
  240.34  244.90  259.86  261.80  269.11  284.72  292.37  305.79  308.65
  320.47  323.42  337.63  348.70  353.71  358.24  370.70  373.21  383.58
  390.10  392.15  398.90  413.35  417.86  424.09  432.90  437.82  442.82
  452.80  462.04  465.58  473.98  477.76  484.26  493.53  495.96  507.40
  513.99  521.34  531.40  534.61  543.77  545.65  556.12  562.01  567.17
  573.67  578.07  589.35  601.22  604.87  611.63  620.08  625.25  631.23
  637.81  643.86  654.12  662.36  665.98  675.67  682.76  690.08  698.66
  703.20  709.98  716.86  728.01  731.35  735.14  746.67  752.77  759.66
  763.43  776.63  778.40  787.38  799.34  805.55  810.86  814.96  826.32
  829.43  838.51  847.15  852.90  855.03  866.27  876.80  890.53  897.68
  909.97  911.65  915.50  923.66  933.91  944.13  950.65  954.46  957.90
  965.47  970.66  983.23  995.32  998.49 1006.71 1012.34 1017.49 1023.94
 1042.04 1047.07 1053.92 1062.20 1069.67 1074.33 1086.18 1087.85 1093.55
 1109.01 1113.34 1124.34 1131.31 1149.85 1156.45 1165.55 1176.24 1190.75
 1196.33 1206.16 1210.73 1215.46 1224.45 1230.45 1242.38 1253.11 1259.11
 1273.29 1282.64 1294.13 1301.44 1308.50 1321.28 1342.14 1350.90 1361.57
 1364.57 1375.61 1390.37 1398.64 1414.06 1427.63 1437.33 1456.78 1471.85
 1487.35 1490.27 1502.09 1517.60 1527.48 1537.14 1565.54 1607.12 1640.43
 1679.16 1711.83 1747.99 1763.34 1802.42 1823.75 1837.62 1854.94 1889.04
 1949.91 1976.78 2040.13 2232.64 2236.05 2335.16 2469.95 2571.72 2600.12
 2805.68 2815.15 3096.55


--------------------------------------------------------------------------------
  K point     12 =   0.062500  0.187500  0.437500  Weight =    0.004
--------------------------------------------------------------------------------

  Frequencies (cm-1) [NB: Negative implies an imaginary mode]:

  106.45  124.39  147.33  170.62  190.00  191.39  205.02  222.60  229.72
  234.77  249.06  258.53  261.93  273.67  282.83  292.59  298.39  307.30
  313.41  325.80  334.41  343.44  353.58  358.12  374.58  375.79  382.91
  387.38  395.54  399.55  410.13  418.46  430.68  435.06  438.47  445.83
  456.21  462.68  464.88  475.91  479.62  487.20  491.41  496.53  504.13
  514.46  522.11  530.12  534.26  543.11  546.47  556.93  562.52  564.83
  570.02  579.66  587.28  595.29  602.80  611.10  618.69  621.94  634.36
  635.92  645.40  653.42  656.75  667.24  674.79  679.89  688.47  700.93
  706.19  712.01  717.97  727.22  733.19  738.53  747.07  753.40  756.26
  766.44  773.42  779.44  789.02  800.55  804.21  810.19  815.24  826.98
  834.15  837.67  844.59  852.82  857.84  866.34  877.80  889.00  899.20
  904.94  909.11  917.11  923.32  932.39  939.81  948.66  955.00  960.15
  967.02  971.70  985.74  993.40  998.59 1006.45 1013.90 1020.32 1030.17
 1043.16 1049.14 1053.36 1060.41 1069.03 1073.89 1081.90 1088.12 1094.37
 1108.14 1111.52 1125.17 1133.24 1149.87 1155.45 1164.47 1178.59 1190.11
 1195.77 1204.89 1210.93 1214.00 1223.39 1231.43 1241.27 1251.36 1259.94
 1273.26 1283.75 1293.77 1304.33 1309.11 1321.32 1342.02 1352.73 1360.96
 1363.65 1372.84 1390.17 1398.83 1415.46 1427.83 1437.23 1456.98 1471.72
 1486.35 1491.59 1500.99 1518.27 1527.13 1537.77 1565.50 1606.86 1640.45
 1679.14 1711.81 1747.87 1763.33 1802.42 1823.73 1837.66 1854.95 1889.04
 1950.07 1976.78 2040.01 2232.64 2236.04 2335.16 2469.95 2571.75 2600.12
 2805.68 2815.14 3096.55


--------------------------------------------------------------------------------
  K point     13 =   0.062500  0.187500  0.562500  Weight =    0.004
--------------------------------------------------------------------------------

  Frequencies (cm-1) [NB: Negative implies an imaginary mode]:

   99.65  139.27  153.22  163.70  181.84  194.71  209.68  219.33  223.91
  235.66  251.53  256.41  262.27  277.34  279.28  290.87  295.32  310.86
  315.82  326.30  332.36  342.97  355.23  358.65  367.94  376.68  383.91
  387.56  394.58  402.05  412.39  418.99  428.16  433.20  440.47  448.42
  451.61  462.78  463.56  477.75  483.51  488.35  491.64  498.65  507.45
  513.21  525.20  527.05  533.02  542.17  545.21  552.93  564.72  566.51
  575.54  580.40  588.47  593.41  600.39  606.86  618.64  620.73  631.94
  637.73  645.76  652.29  657.90  666.54  675.04  677.08  686.61  699.53
  709.48  711.02  719.94  731.12  732.16  738.67  749.25  751.43  756.82
  765.47  773.52  780.59  789.72  796.03  803.86  811.49  814.74  827.59
  834.49  840.05  844.06  851.70  860.93  869.98  881.33  886.68  898.54
  901.85  906.30  915.63  924.17  931.82  933.53  950.36  953.64  960.48
  968.58  976.14  986.67  993.18  996.68 1005.23 1014.01 1023.06 1033.13
 1039.48 1049.36 1053.61 1057.71 1069.64 1074.81 1080.57 1088.99 1096.30
 1108.12 1111.94 1124.08 1133.39 1150.44 1154.56 1167.50 1179.84 1189.40
 1194.29 1203.17 1212.10 1214.68 1221.35 1231.13 1240.16 1249.96 1260.19
 1274.76 1284.90 1293.62 1305.16 1310.51 1320.85 1340.02 1353.67 1359.69
 1363.52 1373.17 1390.68 1398.87 1415.53 1428.61 1436.95 1456.18 1471.80
 1485.44 1492.55 1500.98 1518.58 1526.94 1537.82 1565.49 1606.88 1640.45
 1679.14 1711.81 1747.88 1763.32 1802.42 1823.68 1837.66 1854.98 1889.04
 1950.07 1976.78 2040.01 2232.64 2236.04 2335.16 2469.95 2571.75 2600.12
 2805.68 2815.14 3096.55


--------------------------------------------------------------------------------
  K point     14 =   0.062500  0.187500  0.687500  Weight =    0.004
--------------------------------------------------------------------------------

  Frequencies (cm-1) [NB: Negative implies an imaginary mode]:

   88.89  112.68  152.83  165.51  180.30  197.98  203.58  219.94  234.09
  236.61  244.04  253.46  266.03  276.46  280.59  294.29  299.58  311.89
  320.62  325.79  336.36  345.81  351.80  359.07  364.12  371.96  379.31
  391.72  396.62  406.69  412.53  417.98  422.80  432.08  440.80  444.92
  451.11  458.01  466.35  472.76  479.81  492.93  496.28  503.13  508.08
  515.43  518.23  529.56  534.13  538.80  544.45  552.36  568.28  571.96
  575.75  585.24  587.80  597.83  601.52  607.38  619.26  622.18  628.09
  636.96  643.71  652.37  657.04  668.63  673.16  677.61  688.54  695.22
  708.43  715.87  718.95  729.13  734.67  737.31  746.20  751.77  758.95
  766.59  771.30  781.32  788.27  795.64  803.93  810.86  814.38  827.90
  832.62  838.97  846.85  852.86  863.91  870.45  881.31  889.69  894.87
  901.13  907.24  913.50  926.04  929.50  933.28  949.69  953.11  961.01
  971.07  977.36  987.01  991.17  995.68 1004.04 1011.95 1023.57 1032.17
 1035.44 1045.95 1053.94 1057.75 1071.53 1075.31 1081.99 1091.78 1096.45
 1109.93 1113.88 1122.06 1131.29 1151.07 1155.42 1170.17 1181.60 1188.93
 1192.38 1203.46 1212.23 1216.18 1220.69 1229.20 1239.51 1249.60 1260.15
 1276.53 1285.57 1294.04 1304.26 1310.55 1320.35 1338.30 1350.54 1360.81
 1364.64 1375.46 1391.53 1398.86 1414.43 1429.21 1436.77 1454.97 1471.87
 1484.90 1492.89 1502.09 1518.26 1527.09 1537.24 1565.54 1607.16 1640.43
 1679.17 1711.82 1748.01 1763.31 1802.43 1823.64 1837.62 1855.01 1889.04
 1949.92 1976.78 2040.12 2232.64 2236.05 2335.16 2469.95 2571.72 2600.12
 2805.68 2815.15 3096.55


--------------------------------------------------------------------------------
  K point     15 =   0.062500  0.187500  0.812500  Weight =    0.004
--------------------------------------------------------------------------------

  Frequencies (cm-1) [NB: Negative implies an imaginary mode]:

   75.09   81.18  129.00  163.43  173.79  196.14  209.90  225.75  237.21
  246.49  250.43  255.82  269.88  277.50  283.22  294.49  302.12  313.86
  320.15  326.03  331.16  340.54  353.53  359.71  365.66  370.92  375.88
  391.97  397.58  407.01  412.32  418.57  424.20  433.18  438.51  444.59
  449.26  458.54  465.73  468.67  475.79  483.93  492.60  503.93  509.68
  515.77  522.57  528.03  532.92  542.49  548.87  555.35  564.75  573.65
  581.84  588.71  592.40  596.98  601.83  611.08  622.52  625.54  628.68
  634.25  642.06  652.10  655.42  672.05  674.56  677.41  686.95  692.65
  708.04  716.86  719.02  726.71  733.07  737.08  745.01  753.62  757.95
  768.49  771.73  780.57  785.45  796.86  802.37  808.85  816.44  824.56
  831.20  841.51  848.18  850.94  866.89  872.12  880.36  887.64  892.77
  900.47  911.23  914.30  926.45  930.68  935.29  948.11  954.96  962.46
  971.70  975.33  985.78  988.05  995.01 1002.95 1008.93 1022.78 1031.07
 1033.52 1042.12 1054.83 1058.76 1071.17 1076.34 1082.95 1092.52 1098.44
 1112.00 1116.03 1119.64 1130.65 1150.68 1157.34 1169.23 1182.75 1188.48
 1193.53 1206.18 1212.37 1214.96 1222.21 1227.18 1239.28 1249.76 1261.09
 1277.19 1285.30 1294.73 1301.77 1309.43 1320.91 1336.09 1348.76 1362.35
 1365.58 1378.01 1392.33 1398.87 1412.85 1429.11 1436.82 1454.14 1471.81
 1484.90 1492.62 1503.75 1517.45 1527.42 1536.38 1565.60 1607.54 1640.41
 1679.20 1711.84 1748.17 1763.30 1802.44 1823.61 1837.56 1855.03 1889.04
 1949.70 1976.78 2040.29 2232.64 2236.05 2335.16 2469.96 2571.67 2600.12
 2805.68 2815.17 3096.55


--------------------------------------------------------------------------------
  K point     16 =   0.062500  0.187500  0.937500  Weight =    0.004
--------------------------------------------------------------------------------

  Frequencies (cm-1) [NB: Negative implies an imaginary mode]:

   55.32   65.32  102.28  154.12  175.53  204.37  216.64  222.49  241.29
  247.80  256.02  264.37  270.07  279.94  287.43  289.58  305.58  314.65
  322.22  325.89  326.55  339.21  349.90  359.17  363.55  373.52  377.24
  391.07  398.01  406.19  411.26  418.89  428.10  433.93  436.84  442.70
  451.29  455.45  459.65  467.88  474.78  479.31  491.75  498.28  509.09
  517.44  522.42  530.32  535.07  546.83  550.84  554.86  566.84  572.21
  583.39  590.95  591.56  597.34  605.53  610.98  619.79  627.63  631.08
  639.97  644.80  650.67  659.70  670.91  675.82  677.97  684.90  692.19
  705.32  714.46  719.08  725.24  731.50  737.22  745.85  754.04  760.07
  767.23  769.33  783.00  784.50  796.00  801.72  807.75  818.74  823.30
  827.88  841.34  845.31  852.17  867.28  874.18  881.48  886.50  892.18
  899.36  912.56  916.01  925.50  932.30  940.13  950.33  955.95  963.06
  968.96  973.92  983.37  986.29  995.45 1001.47 1008.13 1020.19 1030.64
 1033.04 1039.95 1055.30 1059.98 1069.82 1078.22 1082.75 1091.88 1099.65
 1111.92 1116.66 1120.37 1131.61 1149.66 1157.86 1168.80 1180.52 1187.89
 1196.94 1208.94 1212.37 1214.44 1222.36 1227.37 1239.73 1250.03 1262.69
 1276.73 1283.93 1294.83 1298.67 1309.16 1321.62 1334.49 1349.08 1363.59
 1365.56 1379.82 1392.78 1398.71 1411.53 1428.68 1436.89 1454.10 1471.80
 1485.45 1491.85 1505.00 1516.67 1527.66 1535.76 1565.64 1607.79 1640.39
 1679.22 1711.85 1748.29 1763.31 1802.44 1823.63 1837.51 1855.03 1889.04
 1949.55 1976.78 2040.40 2232.64 2236.05 2335.16 2469.96 2571.64 2600.12
 2805.68 2815.18 3096.55


--------------------------------------------------------------------------------
  K point     17 =   0.062500  0.312500  0.062500  Weight =    0.004
--------------------------------------------------------------------------------

  Frequencies (cm-1) [NB: Negative implies an imaginary mode]:

   88.53   96.03  137.32  160.01  171.70  200.05  208.92  225.29  234.02
  247.50  252.53  258.85  267.04  273.26  283.70  295.25  300.57  314.41
  317.72  326.12  329.71  339.19  351.29  357.58  363.88  368.42  378.44
  384.24  397.18  406.21  413.96  418.65  426.94  429.85  434.38  441.65
  447.31  457.61  462.53  465.96  475.74  483.59  487.39  504.53  511.38
  513.51  523.76  532.04  535.95  547.14  552.33  556.67  566.39  574.61
  576.39  582.87  589.59  597.73  610.07  616.45  623.56  630.59  632.28
  640.81  646.90  657.46  663.07  672.10  680.59  681.89  685.80  692.53
  697.34  713.05  714.16  722.69  728.17  733.38  746.55  752.22  759.05
  765.92  774.98  778.07  786.75  792.44  800.55  809.90  818.96  823.50
  828.65  841.24  846.38  854.60  862.83  873.45  880.49  887.79  895.38
  900.68  907.35  918.32  923.93  934.68  945.90  952.20  957.03  958.91
  966.83  973.16  978.24  988.55  998.80 1001.41 1010.04 1015.06 1025.90
 1036.26 1045.89 1055.55 1062.52 1069.03 1078.53 1082.02 1090.21 1097.60
 1110.82 1114.27 1119.81 1132.67 1152.87 1161.76 1169.54 1174.15 1185.55
 1198.59 1206.17 1213.05 1216.44 1222.32 1227.23 1241.14 1249.61 1266.09
 1275.07 1283.36 1295.38 1298.20 1309.09 1322.03 1336.44 1344.66 1363.19
 1364.56 1383.12 1392.00 1400.46 1411.83 1426.87 1437.50 1454.58 1471.53
 1487.61 1489.60 1505.05 1516.27 1527.85 1535.92 1565.63 1607.69 1640.37
 1679.24 1711.87 1748.25 1763.34 1802.42 1823.72 1837.48 1854.97 1889.04
 1949.55 1976.78 2040.40 2232.64 2236.05 2335.16 2469.95 2571.64 2600.12
 2805.68 2815.18 3096.55


--------------------------------------------------------------------------------
  K point     18 =   0.062500  0.312500  0.187500  Weight =    0.004
--------------------------------------------------------------------------------

  Frequencies (cm-1) [NB: Negative implies an imaginary mode]:

   89.06  115.04  132.08  165.68  184.92  195.28  207.79  225.55  231.44
  247.01  249.54  257.15  263.97  270.58  277.49  291.47  301.66  315.15
  320.80  326.56  333.25  342.05  354.51  360.04  366.25  372.54  376.85
  384.29  394.96  405.06  414.71  416.66  422.02  428.95  434.93  444.95
  449.45  457.77  464.41  470.42  475.17  484.49  491.64  501.49  509.04
  515.49  523.65  530.58  535.90  544.13  548.68  554.09  563.55  571.94
  576.81  581.93  589.81  601.78  609.56  613.12  623.54  627.68  631.35
  638.44  646.24  658.82  665.86  669.43  675.72  682.77  689.05  694.82
  700.39  710.68  714.77  722.99  728.24  735.49  744.93  751.36  759.41
  767.05  773.11  776.09  786.45  796.94  804.93  810.79  819.25  822.60
  829.04  840.46  847.03  852.03  858.11  870.75  879.43  890.28  897.74
  906.81  907.80  915.72  923.89  936.58  945.66  951.36  953.04  959.78
  964.53  971.27  978.05  996.24 1000.98 1001.67 1010.74 1013.87 1024.97
 1038.92 1048.78 1054.54 1062.19 1069.06 1075.36 1084.76 1089.02 1097.13
 1109.27 1112.73 1121.34 1130.12 1154.34 1159.97 1166.41 1175.11 1187.47
 1198.13 1205.59 1212.49 1217.45 1223.66 1227.60 1242.09 1250.20 1266.31
 1272.76 1282.19 1294.44 1298.40 1309.46 1321.65 1340.30 1345.87 1362.04
 1364.19 1381.28 1390.99 1400.54 1412.96 1426.71 1437.74 1455.22 1471.65
 1487.31 1489.96 1503.80 1516.80 1527.82 1536.43 1565.59 1607.43 1640.39
 1679.22 1711.86 1748.13 1763.35 1802.42 1823.75 1837.52 1854.95 1889.04
 1949.70 1976.78 2040.29 2232.64 2236.05 2335.16 2469.95 2571.67 2600.12
 2805.68 2815.17 3096.55


--------------------------------------------------------------------------------
  K point     19 =   0.062500  0.312500  0.312500  Weight =    0.004
--------------------------------------------------------------------------------

  Frequencies (cm-1) [NB: Negative implies an imaginary mode]:

  101.84  119.90  142.89  168.29  190.75  195.20  207.42  221.46  234.61
  237.96  247.78  257.12  262.76  269.07  276.09  286.29  301.10  314.03
  319.33  328.17  333.12  345.53  355.78  360.57  368.66  374.84  383.32
  386.90  392.31  400.71  412.18  416.94  424.41  429.04  438.01  442.96
  454.11  459.80  466.02  475.48  479.38  485.38  494.21  496.43  508.90
  513.06  522.23  527.28  535.97  540.08  549.63  554.50  562.48  565.98
  577.17  580.37  588.88  600.62  606.63  610.71  619.68  625.04  633.31
  638.35  643.67  657.42  661.21  668.74  674.62  680.19  689.98  702.05
  705.14  708.81  714.86  723.88  730.35  737.26  746.79  750.94  760.63
  763.67  770.17  777.65  787.43  798.35  807.98  815.19  818.02  822.60
  830.43  839.03  847.31  850.57  854.64  869.32  880.12  892.27  898.50
  906.01  910.70  915.28  924.32  932.76  943.94  948.06  953.06  958.32
  964.21  970.20  980.64  998.79 1001.64 1007.17 1008.48 1018.95 1027.56
 1042.27 1050.12 1053.63 1060.19 1068.96 1072.50 1084.62 1090.40 1094.82
 1107.46 1111.40 1123.42 1128.72 1153.28 1158.66 1163.71 1177.91 1188.76
 1197.72 1205.17 1212.66 1215.44 1224.91 1228.02 1242.45 1250.98 1265.02
 1270.31 1282.53 1294.05 1299.87 1309.75 1321.91 1342.75 1348.54 1360.37
 1364.07 1377.17 1390.53 1400.81 1414.64 1426.95 1437.91 1455.50 1471.58
 1485.99 1491.59 1502.20 1517.71 1527.53 1537.23 1565.54 1607.08 1640.42
 1679.19 1711.84 1747.97 1763.34 1802.41 1823.73 1837.59 1854.96 1889.04
 1949.91 1976.78 2040.13 2232.64 2236.05 2335.16 2469.95 2571.72 2600.12
 2805.68 2815.15 3096.55


--------------------------------------------------------------------------------
  K point     20 =   0.062500  0.312500  0.437500  Weight =    0.004
--------------------------------------------------------------------------------

  Frequencies (cm-1) [NB: Negative implies an imaginary mode]:

  113.60  123.13  159.67  168.70  184.55  190.06  201.33  219.99  230.37
  240.01  248.03  256.16  266.00  272.02  278.95  289.89  300.39  308.64
  318.86  325.43  328.87  342.09  353.77  361.87  369.43  378.08  383.52
  390.75  395.90  401.35  407.61  418.53  427.79  432.56  438.98  446.00
  455.20  460.25  467.52  476.36  482.44  487.88  491.39  497.20  501.15
  511.04  523.13  529.72  537.34  539.72  549.02  557.09  560.05  561.43
  575.01  582.47  587.72  594.54  602.69  610.03  617.27  622.84  635.71
  639.95  643.02  653.41  657.04  667.84  676.17  680.68  686.22  701.71
  705.21  712.02  720.00  724.22  729.51  742.54  750.06  752.08  755.14
  765.23  769.15  778.66  790.85  795.48  807.47  811.74  818.00  825.55
  833.60  839.67  845.11  852.16  855.59  870.64  882.11  891.64  898.74
  902.26  909.53  917.56  923.80  927.74  937.71  947.78  951.73  959.56
  966.17  971.67  982.04  998.49 1001.93 1006.88 1012.98 1023.30 1032.11
 1043.74 1050.14 1053.93 1056.48 1067.86 1071.36 1082.65 1089.65 1095.68
 1106.92 1111.81 1122.22 1131.07 1151.54 1156.54 1163.88 1180.67 1188.85
 1196.82 1205.51 1212.79 1213.91 1222.83 1229.62 1241.97 1250.53 1263.32
 1270.34 1283.62 1293.93 1301.70 1310.19 1322.23 1342.05 1352.27 1359.77
 1363.16 1373.39 1390.80 1400.97 1415.67 1427.82 1437.78 1455.13 1471.50
 1485.05 1492.88 1501.10 1518.59 1527.08 1537.84 1565.50 1606.85 1640.44
 1679.16 1711.82 1747.86 1763.33 1802.41 1823.68 1837.63 1854.98 1889.04
 1950.07 1976.78 2040.01 2232.64 2236.04 2335.16 2469.95 2571.75 2600.12
 2805.68 2815.14 3096.55


--------------------------------------------------------------------------------
  K point     21 =   0.062500  0.312500  0.562500  Weight =    0.004
--------------------------------------------------------------------------------

  Frequencies (cm-1) [NB: Negative implies an imaginary mode]:

  110.85  134.04  158.38  170.41  179.66  186.72  203.69  219.67  229.52
  236.77  246.43  257.34  266.18  273.14  280.45  291.26  300.64  309.80
  319.37  320.74  326.96  340.17  353.66  362.62  371.93  374.27  381.68
  392.96  396.13  404.94  409.63  420.27  427.50  435.35  440.20  443.03
  452.31  458.43  466.88  477.33  480.77  489.15  492.16  499.39  502.79
  512.65  523.06  531.62  537.05  540.65  544.09  553.74  562.84  565.43
  574.80  583.47  585.94  593.87  604.16  607.46  618.57  622.22  631.17
  640.74  644.48  652.73  657.83  665.03  676.19  680.04  687.44  696.98
  703.36  711.81  721.95  728.12  734.39  739.54  746.94  752.21  757.44
  764.26  772.35  781.47  790.41  795.28  803.32  810.42  818.10  825.66
  835.55  839.98  844.00  853.20  859.36  874.57  885.66  888.67  895.88
  900.74  907.36  914.28  925.50  927.18  931.47  948.53  951.67  960.06
  967.48  976.26  981.76  996.98 1001.26 1006.79 1014.08 1025.70 1034.24
 1041.05 1049.59 1053.25 1055.16 1068.35 1071.04 1082.36 1089.80 1097.03
 1107.69 1113.11 1121.07 1131.38 1150.91 1155.57 1167.06 1182.57 1188.00
 1194.88 1204.34 1212.67 1216.32 1219.92 1229.35 1241.07 1249.45 1262.14
 1272.72 1284.83 1294.01 1303.21 1310.58 1321.97 1339.93 1353.09 1359.12
 1362.99 1373.31 1391.47 1401.00 1415.55 1428.79 1437.49 1454.31 1471.46
 1484.56 1493.51 1501.10 1518.93 1526.85 1537.87 1565.50 1606.87 1640.44
 1679.17 1711.82 1747.88 1763.32 1802.42 1823.63 1837.63 1855.02 1889.04
 1950.07 1976.78 2040.01 2232.64 2236.04 2335.16 2469.95 2571.75 2600.12
 2805.68 2815.14 3096.55


--------------------------------------------------------------------------------
  K point     22 =   0.062500  0.312500  0.687500  Weight =    0.004
--------------------------------------------------------------------------------

  Frequencies (cm-1) [NB: Negative implies an imaginary mode]:

  105.81  121.17  152.71  170.42  183.46  189.91  206.31  223.58  233.82
  238.51  242.63  249.81  261.65  274.43  279.58  296.05  299.30  310.44
  315.80  320.87  332.54  342.48  352.75  363.09  368.32  371.24  380.76
  390.47  396.19  406.04  415.52  421.60  424.80  431.45  439.56  443.58
  448.07  460.00  464.81  470.73  479.55  489.09  493.97  504.19  511.99
  512.78  518.53  529.27  535.14  539.76  545.32  556.56  564.70  569.69
  576.14  586.97  587.87  594.73  606.93  610.95  618.79  622.60  627.37
  639.99  644.04  654.10  657.76  666.96  673.00  680.80  691.18  693.26
  700.95  710.65  721.53  729.40  732.43  739.99  744.78  750.96  758.32
  767.61  770.72  782.76  790.25  794.58  803.49  811.52  816.31  826.49
  833.48  839.21  843.59  854.05  863.66  876.27  884.86  888.80  892.05
  901.40  904.98  913.99  923.73  928.26  934.10  947.34  952.40  961.83
  969.68  976.87  982.01  992.75 1000.05 1005.46 1013.13 1024.80 1033.12
 1037.54 1047.98 1052.45 1056.68 1069.47 1072.48 1083.92 1090.52 1097.87
 1109.62 1114.38 1120.52 1129.03 1151.59 1157.14 1170.59 1183.96 1186.79
 1191.91 1203.60 1213.32 1216.92 1220.11 1227.35 1240.15 1249.02 1262.04
 1275.10 1285.72 1294.53 1303.98 1310.18 1321.32 1338.02 1348.62 1360.13
 1364.48 1376.17 1392.16 1401.01 1414.55 1428.82 1437.43 1453.64 1471.33
 1484.58 1493.38 1502.20 1518.42 1527.08 1537.31 1565.54 1607.13 1640.42
 1679.19 1711.83 1748.00 1763.31 1802.43 1823.61 1837.59 1855.03 1889.04
 1949.92 1976.78 2040.12 2232.64 2236.05 2335.16 2469.95 2571.72 2600.12
 2805.68 2815.15 3096.55


--------------------------------------------------------------------------------
  K point     23 =   0.062500  0.312500  0.812500  Weight =    0.004
--------------------------------------------------------------------------------

  Frequencies (cm-1) [NB: Negative implies an imaginary mode]:

   91.99  108.34  150.80  165.16  177.70  190.27  213.20  221.85  236.67
  239.73  246.87  257.66  261.14  273.05  283.70  293.47  303.54  307.26
  316.62  320.72  330.55  338.76  355.13  359.67  366.57  370.22  380.36
  389.08  397.47  405.16  414.34  419.77  427.33  429.12  437.06  443.02
  453.06  456.53  463.50  468.49  476.70  485.23  492.70  500.84  508.56
  517.76  523.53  526.12  535.25  544.14  551.26  559.42  565.22  571.51
  578.57  586.61  591.13  598.38  605.50  612.07  622.79  625.53  630.46
  638.39  643.91  651.40  660.64  671.28  673.09  680.14  688.68  693.99
  702.61  710.48  718.81  724.49  729.47  739.95  743.74  753.65  757.75
  769.08  771.38  783.59  785.84  792.99  801.85  812.41  817.81  824.54
  832.29  838.40  846.89  852.48  867.46  875.77  882.71  887.11  891.48
  898.21  906.29  915.13  927.17  931.05  935.91  946.82  955.10  963.52
  971.73  973.97  981.62  987.82  997.18 1003.61 1011.52 1022.66 1030.62
 1035.36 1045.78 1054.71 1058.32 1069.46 1074.84 1084.06 1090.29 1100.03
 1111.14 1114.28 1119.57 1129.55 1152.19 1160.33 1170.74 1181.79 1185.86
 1193.29 1204.61 1213.14 1215.67 1222.28 1225.62 1239.76 1249.11 1263.17
 1276.07 1285.83 1295.41 1303.39 1308.78 1321.66 1335.94 1344.94 1361.65
 1365.35 1379.71 1392.60 1400.99 1413.15 1428.01 1437.50 1453.55 1471.22
 1485.15 1492.55 1503.84 1517.38 1527.47 1536.51 1565.59 1607.48 1640.39
 1679.22 1711.85 1748.16 1763.32 1802.43 1823.63 1837.53 1855.03 1889.04
 1949.70 1976.78 2040.29 2232.64 2236.05 2335.16 2469.95 2571.67 2600.12
 2805.68 2815.17 3096.55


--------------------------------------------------------------------------------
  K point     24 =   0.062500  0.312500  0.937500  Weight =    0.004
--------------------------------------------------------------------------------

  Frequencies (cm-1) [NB: Negative implies an imaginary mode]:

   84.18   98.87  144.86  159.33  168.74  197.40  213.11  219.87  239.27
  246.99  248.88  260.75  269.73  272.06  282.92  291.23  306.91  311.26
  316.67  321.34  325.66  339.04  351.87  357.77  364.33  368.43  381.07
  387.78  397.84  404.43  415.43  417.27  427.23  431.10  434.47  441.91
  450.45  457.92  461.24  466.97  474.31  484.33  490.02  499.15  508.77
  516.56  525.97  529.90  536.00  547.65  553.16  560.15  567.05  571.05
  580.96  584.95  588.06  599.11  606.29  614.15  625.44  628.71  632.73
  641.14  646.29  651.02  663.22  673.09  675.69  680.71  686.11  693.19
  703.12  711.85  715.52  719.52  730.79  736.19  744.15  753.84  758.41
  768.03  773.78  782.48  785.05  789.98  799.28  811.27  820.53  822.14
  830.34  840.43  846.89  853.90  867.01  874.64  882.33  887.77  890.61
  897.41  907.23  917.11  927.04  933.04  939.86  950.38  957.67  963.02
  968.45  973.60  980.10  985.84  996.05 1002.00 1010.46 1018.85 1028.12
 1035.62 1044.16 1056.01 1060.72 1069.33 1077.75 1082.08 1090.51 1099.78
 1110.49 1114.31 1119.99 1132.30 1152.01 1162.49 1170.05 1177.23 1184.81
 1197.37 1205.98 1213.41 1214.66 1222.53 1226.04 1240.21 1249.35 1264.80
 1275.94 1284.99 1295.91 1300.50 1308.56 1322.43 1334.50 1344.13 1362.78
 1365.32 1382.36 1392.62 1400.76 1411.98 1427.26 1437.46 1453.94 1471.30
 1486.24 1491.16 1505.08 1516.47 1527.73 1535.94 1565.63 1607.71 1640.37
 1679.24 1711.87 1748.27 1763.33 1802.43 1823.68 1837.48 1855.00 1889.04
 1949.55 1976.78 2040.40 2232.64 2236.05 2335.16 2469.95 2571.64 2600.12
 2805.68 2815.18 3096.55


--------------------------------------------------------------------------------
  K point     25 =   0.062500  0.437500  0.062500  Weight =    0.004
--------------------------------------------------------------------------------

  Frequencies (cm-1) [NB: Negative implies an imaginary mode]:

  116.00  122.92  140.06  158.12  175.95  201.11  207.32  225.13  230.47
  244.94  250.52  255.07  264.57  270.12  282.56  288.51  296.20  310.87
  319.21  326.54  328.48  339.43  350.31  355.74  364.88  370.07  376.58
  384.46  397.78  406.74  412.05  416.56  424.09  429.08  432.11  438.71
  450.67  455.19  464.32  470.51  475.60  481.92  491.36  505.87  510.97
  518.54  524.06  533.42  535.62  545.17  552.79  558.97  567.60  574.02
  580.49  582.86  587.89  595.40  604.44  618.06  626.22  631.37  635.88
  645.27  647.46  655.49  663.31  670.95  676.33  682.92  688.83  691.97
  698.41  708.84  713.95  723.28  727.19  730.17  748.02  750.45  759.01
  766.38  774.80  781.11  786.35  791.93  796.03  810.22  820.86  827.01
  829.87  839.37  848.09  855.63  860.37  873.70  880.42  887.67  896.18
  899.50  907.59  916.98  923.37  933.93  947.96  951.35  954.69  960.68
  967.74  972.89  976.50  987.86 1000.18 1001.35 1010.34 1016.10 1024.61
 1035.26 1049.10 1056.89 1063.42 1070.13 1077.11 1080.18 1090.35 1097.65
 1108.88 1112.47 1120.36 1133.27 1156.83 1163.37 1168.52 1176.16 1181.36
 1198.35 1203.16 1213.96 1216.23 1222.63 1226.70 1240.96 1249.36 1265.62
 1275.64 1285.00 1297.59 1298.71 1308.66 1322.80 1335.14 1341.90 1362.59
 1364.60 1384.24 1391.55 1402.35 1412.43 1425.99 1437.82 1454.16 1471.30
 1487.78 1489.40 1505.11 1516.18 1527.92 1536.03 1565.62 1607.65 1640.36
 1679.26 1711.89 1748.24 1763.35 1802.41 1823.75 1837.46 1854.96 1889.05
 1949.55 1976.78 2040.40 2232.65 2236.05 2335.16 2469.95 2571.64 2600.12
 2805.68 2815.18 3096.55


--------------------------------------------------------------------------------
  K point     26 =   0.062500  0.437500  0.187500  Weight =    0.004
--------------------------------------------------------------------------------

  Frequencies (cm-1) [NB: Negative implies an imaginary mode]:

  116.04  122.17  147.26  160.20  173.58  198.36  210.26  227.16  231.47
  243.83  249.83  254.47  262.59  269.63  277.05  286.70  295.85  311.90
  320.61  327.36  333.46  339.35  352.67  360.41  367.02  370.34  378.64
  382.47  397.93  406.09  412.56  415.75  420.49  427.14  433.27  440.50
  454.18  457.43  465.20  471.42  478.89  485.22  494.33  501.39  513.41
  514.74  520.38  529.68  539.17  544.67  548.49  557.53  562.44  572.14
  580.95  584.20  589.21  597.23  606.00  613.66  622.14  628.31  634.35
  642.51  647.70  656.83  665.93  667.58  675.19  681.50  686.09  697.47
  698.83  709.77  715.40  719.48  729.08  733.60  746.52  752.10  760.61
  764.71  771.73  778.39  786.82  796.06  802.01  814.22  820.66  825.83
  828.35  839.74  846.62  851.92  859.02  873.64  881.47  889.00  897.73
  903.26  908.48  912.21  924.53  935.93  946.98  948.25  953.59  960.60
  965.78  970.45  976.33  993.88  999.86 1003.53 1011.36 1016.81 1026.22
[...]
--------------------------------------------------------------------------------
  Zero point energy            =       11.478287 eV
  Entropy                      =        0.000224 eV/K
                               =       21.575832 J/(mol.K)
  Helmholtz free-energy        =     -410.179298 eV
                               =   -39576.028639 kJmol-1
  Free energy (equipartition)  =     -418.125758 eV
  - T*S       (equipartition)  =        2.203618 eV
  Uvib        (equipartition)  =        1.323623 eV
  Mean kinetic energy          =        5.745795 eV
  Heat capacity - const volume =        0.000599 eV/K
                               =       57.766604 J/(mol.K)
--------------------------------------------------------------------------------
  Phonon properties (per mole of unit cells): Temperature =     90.000 K
--------------------------------------------------------------------------------
  Zero point energy            =       11.478287 eV
  Entropy                      =        0.000305 eV/K
                               =       29.381323 J/(mol.K)
  Helmholtz free-energy        =     -410.181929 eV
                               =   -39576.282460 kJmol-1
  Free energy (equipartition)  =     -417.860241 eV
  - T*S       (equipartition)  =        2.303683 eV
  Uvib        (equipartition)  =        1.489076 eV
  Mean kinetic energy          =        5.749239 eV
  Heat capacity - const volume =        0.000781 eV/K
                               =       75.398452 J/(mol.K)
--------------------------------------------------------------------------------
  Phonon properties (per mole of unit cells): Temperature =    100.000 K
--------------------------------------------------------------------------------
  Zero point energy            =       11.478287 eV
  Entropy                      =        0.000397 eV/K
                               =       38.304754 J/(mol.K)
  Helmholtz free-energy        =     -410.185427 eV
                               =   -39576.619992 kJmol-1
  Free energy (equipartition)  =     -417.613145 eV
  - T*S       (equipartition)  =        2.385326 eV
  Uvib        (equipartition)  =        1.654529 eV
  Mean kinetic energy          =        5.753636 eV
  Heat capacity - const volume =        0.000980 eV/K
                               =       94.557445 J/(mol.K)
--------------------------------------------------------------------------------
  Phonon properties (per mole of unit cells): Temperature =    110.000 K
--------------------------------------------------------------------------------
  Zero point energy            =       11.478287 eV
  Entropy                      =        0.000500 eV/K
                               =       48.265581 J/(mol.K)
  Helmholtz free-energy        =     -410.189905 eV
                               =   -39577.052013 kJmol-1
  Free energy (equipartition)  =     -417.382622 eV
  - T*S       (equipartition)  =        2.450396 eV
  Uvib        (equipartition)  =        1.819981 eV
  Mean kinetic energy          =        5.759061 eV
  Heat capacity - const volume =        0.001192 eV/K
                               =      114.975542 J/(mol.K)
--------------------------------------------------------------------------------
  Phonon properties (per mole of unit cells): Temperature =    120.000 K
--------------------------------------------------------------------------------
  Zero point energy            =       11.478287 eV
  Entropy                      =        0.000613 eV/K
                               =       59.182579 J/(mol.K)
  Helmholtz free-energy        =     -410.195465 eV
                               =   -39577.588491 kJmol-1
  Free energy (equipartition)  =     -417.167162 eV
  - T*S       (equipartition)  =        2.500403 eV
  Uvib        (equipartition)  =        1.985434 eV
  Mean kinetic energy          =        5.765570 eV
  Heat capacity - const volume =        0.001414 eV/K
                               =      136.422183 J/(mol.K)
--------------------------------------------------------------------------------
  Phonon properties (per mole of unit cells): Temperature =    130.000 K
--------------------------------------------------------------------------------
  Zero point energy            =       11.478287 eV
  Entropy                      =        0.000736 eV/K
                               =       70.976950 J/(mol.K)
  Helmholtz free-energy        =     -410.202203 eV
                               =   -39578.238589 kJmol-1
  Free energy (equipartition)  =     -416.965505 eV
  - T*S       (equipartition)  =        2.536608 eV
  Uvib        (equipartition)  =        2.150887 eV
  Mean kinetic energy          =        5.773214 eV
  Heat capacity - const volume =        0.001645 eV/K
                               =      158.700895 J/(mol.K)
--------------------------------------------------------------------------------
  Phonon properties (per mole of unit cells): Temperature =    140.000 K
--------------------------------------------------------------------------------
  Zero point energy            =       11.478287 eV
  Entropy                      =        0.000866 eV/K
                               =       83.573969 J/(mol.K)
  Helmholtz free-energy        =     -410.210205 eV
                               =   -39579.010705 kJmol-1
  Free energy (equipartition)  =     -416.776587 eV
  - T*S       (equipartition)  =        2.560072 eV
  Uvib        (equipartition)  =        2.316340 eV
  Mean kinetic energy          =        5.782030 eV
  Heat capacity - const volume =        0.001883 eV/K
                               =      181.644734 J/(mol.K)
--------------------------------------------------------------------------------
  Phonon properties (per mole of unit cells): Temperature =    150.000 K
--------------------------------------------------------------------------------
  Zero point energy            =       11.478287 eV
  Entropy                      =        0.001004 eV/K
                               =       96.903737 J/(mol.K)
  Helmholtz free-energy        =     -410.219552 eV
                               =   -39579.912510 kJmol-1
  Free energy (equipartition)  =     -416.599498 eV
  - T*S       (equipartition)  =        2.571708 eV
  Uvib        (equipartition)  =        2.481793 eV
  Mean kinetic energy          =        5.792049 eV
  Heat capacity - const volume =        0.002126 eV/K
                               =      205.111565 J/(mol.K)
--------------------------------------------------------------------------------
  Phonon properties (per mole of unit cells): Temperature =    160.000 K
--------------------------------------------------------------------------------
  Zero point energy            =       11.478287 eV
  Entropy                      =        0.001149 eV/K
                               =      110.901396 J/(mol.K)
  Helmholtz free-energy        =     -410.230315 eV
                               =   -39580.951005 kJmol-1
  Free energy (equipartition)  =     -416.433448 eV
  - T*S       (equipartition)  =        2.572306 eV
  Uvib        (equipartition)  =        2.647246 eV
  Mean kinetic energy          =        5.803296 eV
  Heat capacity - const volume =        0.002373 eV/K
                               =      228.979696 J/(mol.K)
--------------------------------------------------------------------------------
  Phonon properties (per mole of unit cells): Temperature =    170.000 K
--------------------------------------------------------------------------------
  Zero point energy            =       11.478287 eV
  Entropy                      =        0.001301 eV/K
                               =      125.507027 J/(mol.K)
  Helmholtz free-energy        =     -410.242561 eV
                               =   -39582.132564 kJmol-1
  Free energy (equipartition)  =     -416.277744 eV
  - T*S       (equipartition)  =        2.562556 eV
  Uvib        (equipartition)  =        2.812699 eV
  Mean kinetic energy          =        5.815787 eV
  Heat capacity - const volume =        0.002624 eV/K
                               =      253.144116 J/(mol.K)
--------------------------------------------------------------------------------
  Phonon properties (per mole of unit cells): Temperature =    180.000 K
--------------------------------------------------------------------------------
  Zero point energy            =       11.478287 eV
  Entropy                      =        0.001458 eV/K
                               =      140.665387 J/(mol.K)
  Helmholtz free-energy        =     -410.256350 eV
                               =   -39583.462988 kJmol-1
  Free energy (equipartition)  =     -416.131779 eV
  - T*S       (equipartition)  =        2.543069 eV
  Uvib        (equipartition)  =        2.978151 eV
  Mean kinetic energy          =        5.829536 eV
  Heat capacity - const volume =        0.002876 eV/K
                               =      277.513382 J/(mol.K)
--------------------------------------------------------------------------------
  Phonon properties (per mole of unit cells): Temperature =    190.000 K
--------------------------------------------------------------------------------
  Zero point energy            =       11.478287 eV
  Entropy                      =        0.001620 eV/K
                               =      156.325559 J/(mol.K)
  Helmholtz free-energy        =     -410.271737 eV
                               =   -39584.947544 kJmol-1
  Free energy (equipartition)  =     -415.995011 eV
  - T*S       (equipartition)  =        2.514384 eV
  Uvib        (equipartition)  =        3.143604 eV
  Mean kinetic energy          =        5.844551 eV
  Heat capacity - const volume =        0.003130 eV/K
                               =      302.007145 J/(mol.K)
--------------------------------------------------------------------------------
  Phonon properties (per mole of unit cells): Temperature =    200.000 K
--------------------------------------------------------------------------------
  Zero point energy            =       11.478287 eV
  Entropy                      =        0.001787 eV/K
                               =      172.440582 J/(mol.K)
  Helmholtz free-energy        =     -410.288770 eV
                               =   -39586.591015 kJmol-1
  Free energy (equipartition)  =     -415.866954 eV
  - T*S       (equipartition)  =        2.476988 eV
  Uvib        (equipartition)  =        3.309057 eV
  Mean kinetic energy          =        5.860838 eV
  Heat capacity - const volume =        0.003385 eV/K
                               =      326.554230 J/(mol.K)
--------------------------------------------------------------------------------
  Phonon properties (per mole of unit cells): Temperature =    210.000 K
--------------------------------------------------------------------------------
  Zero point energy            =       11.478287 eV
  Entropy                      =        0.001959 eV/K
                               =      188.967092 J/(mol.K)
  Helmholtz free-energy        =     -410.307495 eV
                               =   -39588.397727 kJmol-1
  Free energy (equipartition)  =     -415.747174 eV
  - T*S       (equipartition)  =        2.431315 eV
  Uvib        (equipartition)  =        3.474510 eV
  Mean kinetic energy          =        5.878396 eV
  Heat capacity - const volume =        0.003639 eV/K
                               =      351.091183 J/(mol.K)
--------------------------------------------------------------------------------
  Phonon properties (per mole of unit cells): Temperature =    220.000 K
--------------------------------------------------------------------------------
  Zero point energy            =       11.478287 eV
  Entropy                      =        0.002134 eV/K
                               =      205.864981 J/(mol.K)
  Helmholtz free-energy        =     -410.327953 eV
                               =   -39590.371594 kJmol-1
  Free energy (equipartition)  =     -415.635275 eV
  - T*S       (equipartition)  =        2.377761 eV
  Uvib        (equipartition)  =        3.639963 eV
  Mean kinetic energy          =        5.897225 eV
  Heat capacity - const volume =        0.003892 eV/K
                               =      375.561179 J/(mol.K)
--------------------------------------------------------------------------------
  Phonon properties (per mole of unit cells): Temperature =    230.000 K
--------------------------------------------------------------------------------
  Zero point energy            =       11.478287 eV
  Entropy                      =        0.002312 eV/K
                               =      223.097098 J/(mol.K)
  Helmholtz free-energy        =     -410.350180 eV
                               =   -39592.516141 kJmol-1
  Free energy (equipartition)  =     -415.530900 eV
  - T*S       (equipartition)  =        2.316684 eV
  Uvib        (equipartition)  =        3.805416 eV
  Mean kinetic energy          =        5.917319 eV
  Heat capacity - const volume =        0.004145 eV/K
                               =      399.913212 J/(mol.K)
--------------------------------------------------------------------------------
  Phonon properties (per mole of unit cells): Temperature =    240.000 K
--------------------------------------------------------------------------------
  Zero point energy            =       11.478287 eV
  Entropy                      =        0.002494 eV/K
                               =      240.628977 J/(mol.K)
  Helmholtz free-energy        =     -410.374209 eV
                               =   -39594.834535 kJmol-1
  Free energy (equipartition)  =     -415.433720 eV
  - T*S       (equipartition)  =        2.248411 eV
  Uvib        (equipartition)  =        3.970868 eV
  Mean kinetic energy          =        5.938670 eV
  Heat capacity - const volume =        0.004396 eV/K
                               =      424.101492 J/(mol.K)
--------------------------------------------------------------------------------
  Phonon properties (per mole of unit cells): Temperature =    250.000 K
--------------------------------------------------------------------------------
  Zero point energy            =       11.478287 eV
  Entropy                      =        0.002678 eV/K
                               =      258.428604 J/(mol.K)
  Helmholtz free-energy        =     -410.400069 eV
                               =   -39597.329613 kJmol-1
  Free energy (equipartition)  =     -415.343437 eV
  - T*S       (equipartition)  =        2.173241 eV
  Uvib        (equipartition)  =        4.136321 eV
  Mean kinetic energy          =        5.961271 eV
  Heat capacity - const volume =        0.004644 eV/K
                               =      448.084984 J/(mol.K)
--------------------------------------------------------------------------------
  Phonon properties (per mole of unit cells): Temperature =    260.000 K
--------------------------------------------------------------------------------
  Zero point energy            =       11.478287 eV
  Entropy                      =        0.002865 eV/K
                               =      276.466208 J/(mol.K)
  Helmholtz free-energy        =     -410.427786 eV
                               =   -39600.003900 kJmol-1
  Free energy (equipartition)  =     -415.259773 eV
  - T*S       (equipartition)  =        2.091452 eV
  Uvib        (equipartition)  =        4.301774 eV
  Mean kinetic energy          =        5.985107 eV
  Heat capacity - const volume =        0.004890 eV/K
                               =      471.827046 J/(mol.K)
--------------------------------------------------------------------------------
  Phonon properties (per mole of unit cells): Temperature =    270.000 K
--------------------------------------------------------------------------------
  Zero point energy            =       11.478287 eV
  Entropy                      =        0.003055 eV/K
                               =      294.714086 J/(mol.K)
  Helmholtz free-energy        =     -410.457384 eV
                               =   -39602.859637 kJmol-1
  Free energy (equipartition)  =     -415.182474 eV
  - T*S       (equipartition)  =        2.003298 eV
  Uvib        (equipartition)  =        4.467227 eV
  Mean kinetic energy          =        6.010168 eV
  Heat capacity - const volume =        0.005133 eV/K
                               =      495.295131 J/(mol.K)
--------------------------------------------------------------------------------
  Phonon properties (per mole of unit cells): Temperature =    280.000 K
--------------------------------------------------------------------------------
  Zero point energy            =       11.478287 eV
  Entropy                      =        0.003246 eV/K
                               =      313.146442 J/(mol.K)
  Helmholtz free-energy        =     -410.488882 eV
                               =   -39605.898797 kJmol-1
  Free energy (equipartition)  =     -415.111305 eV
  - T*S       (equipartition)  =        1.909015 eV
  Uvib        (equipartition)  =        4.632680 eV
  Mean kinetic energy          =        6.036436 eV
  Heat capacity - const volume =        0.005373 eV/K
                               =      518.460530 J/(mol.K)
--------------------------------------------------------------------------------
  Phonon properties (per mole of unit cells): Temperature =    290.000 K
--------------------------------------------------------------------------------
  Zero point energy            =       11.478287 eV
  Entropy                      =        0.003438 eV/K
                               =      331.739256 J/(mol.K)
  Helmholtz free-energy        =     -410.522300 eV
                               =   -39609.123101 kJmol-1
  Free energy (equipartition)  =     -415.046045 eV
  - T*S       (equipartition)  =        1.808821 eV
  Uvib        (equipartition)  =        4.798133 eV
  Mean kinetic energy          =        6.063897 eV
  Heat capacity - const volume =        0.005610 eV/K
                               =      541.298136 J/(mol.K)
--------------------------------------------------------------------------------
  Phonon properties (per mole of unit cells): Temperature =    300.000 K
--------------------------------------------------------------------------------
  Zero point energy            =       11.478287 eV
  Entropy                      =        0.003632 eV/K
                               =      350.470154 J/(mol.K)
  Helmholtz free-energy        =     -410.557652 eV
                               =   -39612.534042 kJmol-1
  Free energy (equipartition)  =     -414.986493 eV
  - T*S       (equipartition)  =        1.702921 eV
  Uvib        (equipartition)  =        4.963586 eV
  Mean kinetic energy          =        6.092532 eV
  Heat capacity - const volume =        0.005843 eV/K
                               =      563.786224 J/(mol.K)
--------------------------------------------------------------------------------

  Time to end of properties =      72.8410 seconds


  Peak dynamic memory used =       3.43 MB 


  Timing analysis for GULP :

--------------------------------------------------------------------------------
  Task / Subroutine                                          Time (Seconds)
--------------------------------------------------------------------------------
  Calculation of real space energy and derivatives                0.0876
  Calculation of Brenner energy and derivatives                  62.4278
  Calculation of phonons                                         72.5537
  Disk read/write operations to scratch files                     0.2521
--------------------------------------------------------------------------------
  Total CPU time                                                 72.8411
--------------------------------------------------------------------------------


  Job Finished at 20:12.38 29th July       2020                               

