********************************************************************************
*                       GENERAL UTILITY LATTICE PROGRAM                        *
*                                 Julian Gale                                  *
*                       Curtin Institute for Computation                       *
*                           Department of Chemistry                            *
*                    Curtin University, Western Australia                      *
********************************************************************************
* Version = 5.1.0 * Last modified = 25th January 2020                          *
********************************************************************************
*  single       - perform a single point run                                   *
*  property     - calculate properties for final geometry                      *
*  phonon       - calculate phonons for final geometry                         *
********************************************************************************
* ASE calculation                                                              *
********************************************************************************


  Job Started  at 18:11.01 14th August     2020                               

  Number of CPUs =     1


  Total number of configurations input =      1

********************************************************************************
*  Input for Configuration =   1                                               *
********************************************************************************

  Formula = C8                                                          

  Number of irreducible atoms/shells =       8


  Total number atoms/shells =       8

  Dimensionality = 3               :  Bulk   



  Cartesian lattice vectors (Angstroms) :

        3.596577    0.000000    0.000000
        0.000000    3.596577    0.000000
        0.000000    0.000000    3.596577

  Cell parameters (Angstroms/Degrees):

  a =       3.5966    alpha =  90.0000
  b =       3.5966    beta  =  90.0000
  c =       3.5966    gamma =  90.0000

  Initial cell volume =          46.523040 Angs**3

  Shrinking factors =      8     8     8

  Temperature of configuration =  10.00     K 

  Pressure of configuration =         0.000 GPa 

  Fractional coordinates of asymmetric unit :

--------------------------------------------------------------------------------
   No.  Atomic       x           y          z         Charge      Occupancy
        Label      (Frac)      (Frac)     (Frac)        (e)         (Frac)  
--------------------------------------------------------------------------------
      1 C     c    0.000000    0.000000    0.000000     0.00000    1.000000    
      2 C     c    0.000000    0.500000    0.500000     0.00000    1.000000    
      3 C     c    0.500000    0.500000    0.000000     0.00000    1.000000    
      4 C     c    0.500000    0.000000    0.500000     0.00000    1.000000    
      5 C     c    0.750000    0.250000    0.750000     0.00000    1.000000    
      6 C     c    0.250000    0.250000    0.250000     0.00000    1.000000    
      7 C     c    0.250000    0.750000    0.750000     0.00000    1.000000    
      8 C     c    0.750000    0.750000    0.250000     0.00000    1.000000    
--------------------------------------------------------------------------------


  Brillouin zone sampling points :

--------------------------------------------------------------------------------
  Point number          x          y          z            Weight
--------------------------------------------------------------------------------
        1           0.062500   0.062500   0.062500     0.00390625
        2           0.062500   0.062500   0.187500     0.00390625
        3           0.062500   0.062500   0.312500     0.00390625
        4           0.062500   0.062500   0.437500     0.00390625
        5           0.062500   0.062500   0.562500     0.00390625
        6           0.062500   0.062500   0.687500     0.00390625
        7           0.062500   0.062500   0.812500     0.00390625
        8           0.062500   0.062500   0.937500     0.00390625
        9           0.062500   0.187500   0.062500     0.00390625
       10           0.062500   0.187500   0.187500     0.00390625
       11           0.062500   0.187500   0.312500     0.00390625
       12           0.062500   0.187500   0.437500     0.00390625
       13           0.062500   0.187500   0.562500     0.00390625
       14           0.062500   0.187500   0.687500     0.00390625
       15           0.062500   0.187500   0.812500     0.00390625
       16           0.062500   0.187500   0.937500     0.00390625
       17           0.062500   0.312500   0.062500     0.00390625
       18           0.062500   0.312500   0.187500     0.00390625
       19           0.062500   0.312500   0.312500     0.00390625
       20           0.062500   0.312500   0.437500     0.00390625
       21           0.062500   0.312500   0.562500     0.00390625
       22           0.062500   0.312500   0.687500     0.00390625
       23           0.062500   0.312500   0.812500     0.00390625
       24           0.062500   0.312500   0.937500     0.00390625
       25           0.062500   0.437500   0.062500     0.00390625
       26           0.062500   0.437500   0.187500     0.00390625
       27           0.062500   0.437500   0.312500     0.00390625
       28           0.062500   0.437500   0.437500     0.00390625
       29           0.062500   0.437500   0.562500     0.00390625
       30           0.062500   0.437500   0.687500     0.00390625
       31           0.062500   0.437500   0.812500     0.00390625
       32           0.062500   0.437500   0.937500     0.00390625
       33           0.062500   0.562500   0.062500     0.00390625
       34           0.062500   0.562500   0.187500     0.00390625
       35           0.062500   0.562500   0.312500     0.00390625
       36           0.062500   0.562500   0.437500     0.00390625
       37           0.062500   0.562500   0.562500     0.00390625
       38           0.062500   0.562500   0.687500     0.00390625
       39           0.062500   0.562500   0.812500     0.00390625
       40           0.062500   0.562500   0.937500     0.00390625
       41           0.062500   0.687500   0.062500     0.00390625
       42           0.062500   0.687500   0.187500     0.00390625
       43           0.062500   0.687500   0.312500     0.00390625
       44           0.062500   0.687500   0.437500     0.00390625
       45           0.062500   0.687500   0.562500     0.00390625
       46           0.062500   0.687500   0.687500     0.00390625
       47           0.062500   0.687500   0.812500     0.00390625
       48           0.062500   0.687500   0.937500     0.00390625
       49           0.062500   0.812500   0.062500     0.00390625
       50           0.062500   0.812500   0.187500     0.00390625
       51           0.062500   0.812500   0.312500     0.00390625
       52           0.062500   0.812500   0.437500     0.00390625
       53           0.062500   0.812500   0.562500     0.00390625
       54           0.062500   0.812500   0.687500     0.00390625
       55           0.062500   0.812500   0.812500     0.00390625
       56           0.062500   0.812500   0.937500     0.00390625
       57           0.062500   0.937500   0.062500     0.00390625
       58           0.062500   0.937500   0.187500     0.00390625
       59           0.062500   0.937500   0.312500     0.00390625
       60           0.062500   0.937500   0.437500     0.00390625
       61           0.062500   0.937500   0.562500     0.00390625
       62           0.062500   0.937500   0.687500     0.00390625
       63           0.062500   0.937500   0.812500     0.00390625
       64           0.062500   0.937500   0.937500     0.00390625
       65           0.187500   0.062500   0.062500     0.00390625
       66           0.187500   0.062500   0.187500     0.00390625
       67           0.187500   0.062500   0.312500     0.00390625
       68           0.187500   0.062500   0.437500     0.00390625
       69           0.187500   0.062500   0.562500     0.00390625
       70           0.187500   0.062500   0.687500     0.00390625
       71           0.187500   0.062500   0.812500     0.00390625
       72           0.187500   0.062500   0.937500     0.00390625
       73           0.187500   0.187500   0.062500     0.00390625
       74           0.187500   0.187500   0.187500     0.00390625
       75           0.187500   0.187500   0.312500     0.00390625
       76           0.187500   0.187500   0.437500     0.00390625
       77           0.187500   0.187500   0.562500     0.00390625
       78           0.187500   0.187500   0.687500     0.00390625
       79           0.187500   0.187500   0.812500     0.00390625
       80           0.187500   0.187500   0.937500     0.00390625
       81           0.187500   0.312500   0.062500     0.00390625
       82           0.187500   0.312500   0.187500     0.00390625
       83           0.187500   0.312500   0.312500     0.00390625
       84           0.187500   0.312500   0.437500     0.00390625
       85           0.187500   0.312500   0.562500     0.00390625
       86           0.187500   0.312500   0.687500     0.00390625
       87           0.187500   0.312500   0.812500     0.00390625
       88           0.187500   0.312500   0.937500     0.00390625
       89           0.187500   0.437500   0.062500     0.00390625
       90           0.187500   0.437500   0.187500     0.00390625
       91           0.187500   0.437500   0.312500     0.00390625
       92           0.187500   0.437500   0.437500     0.00390625
       93           0.187500   0.437500   0.562500     0.00390625
       94           0.187500   0.437500   0.687500     0.00390625
       95           0.187500   0.437500   0.812500     0.00390625
       96           0.187500   0.437500   0.937500     0.00390625
       97           0.187500   0.562500   0.062500     0.00390625
       98           0.187500   0.562500   0.187500     0.00390625
       99           0.187500   0.562500   0.312500     0.00390625
      100           0.187500   0.562500   0.437500     0.00390625
      101           0.187500   0.562500   0.562500     0.00390625
      102           0.187500   0.562500   0.687500     0.00390625
      103           0.187500   0.562500   0.812500     0.00390625
      104           0.187500   0.562500   0.937500     0.00390625
      105           0.187500   0.687500   0.062500     0.00390625
      106           0.187500   0.687500   0.187500     0.00390625
      107           0.187500   0.687500   0.312500     0.00390625
      108           0.187500   0.687500   0.437500     0.00390625
      109           0.187500   0.687500   0.562500     0.00390625
      110           0.187500   0.687500   0.687500     0.00390625
      111           0.187500   0.687500   0.812500     0.00390625
      112           0.187500   0.687500   0.937500     0.00390625
      113           0.187500   0.812500   0.062500     0.00390625
      114           0.187500   0.812500   0.187500     0.00390625
      115           0.187500   0.812500   0.312500     0.00390625
      116           0.187500   0.812500   0.437500     0.00390625
      117           0.187500   0.812500   0.562500     0.00390625
      118           0.187500   0.812500   0.687500     0.00390625
      119           0.187500   0.812500   0.812500     0.00390625
      120           0.187500   0.812500   0.937500     0.00390625
      121           0.187500   0.937500   0.062500     0.00390625
      122           0.187500   0.937500   0.187500     0.00390625
      123           0.187500   0.937500   0.312500     0.00390625
      124           0.187500   0.937500   0.437500     0.00390625
      125           0.187500   0.937500   0.562500     0.00390625
      126           0.187500   0.937500   0.687500     0.00390625
      127           0.187500   0.937500   0.812500     0.00390625
      128           0.187500   0.937500   0.937500     0.00390625
      129           0.312500   0.062500   0.062500     0.00390625
      130           0.312500   0.062500   0.187500     0.00390625
      131           0.312500   0.062500   0.312500     0.00390625
      132           0.312500   0.062500   0.437500     0.00390625
      133           0.312500   0.062500   0.562500     0.00390625
      134           0.312500   0.062500   0.687500     0.00390625
      135           0.312500   0.062500   0.812500     0.00390625
      136           0.312500   0.062500   0.937500     0.00390625
      137           0.312500   0.187500   0.062500     0.00390625
      138           0.312500   0.187500   0.187500     0.00390625
      139           0.312500   0.187500   0.312500     0.00390625
      140           0.312500   0.187500   0.437500     0.00390625
      141           0.312500   0.187500   0.562500     0.00390625
      142           0.312500   0.187500   0.687500     0.00390625
      143           0.312500   0.187500   0.812500     0.00390625
      144           0.312500   0.187500   0.937500     0.00390625
      145           0.312500   0.312500   0.062500     0.00390625
      146           0.312500   0.312500   0.187500     0.00390625
      147           0.312500   0.312500   0.312500     0.00390625
      148           0.312500   0.312500   0.437500     0.00390625
      149           0.312500   0.312500   0.562500     0.00390625
      150           0.312500   0.312500   0.687500     0.00390625
      151           0.312500   0.312500   0.812500     0.00390625
      152           0.312500   0.312500   0.937500     0.00390625
      153           0.312500   0.437500   0.062500     0.00390625
      154           0.312500   0.437500   0.187500     0.00390625
      155           0.312500   0.437500   0.312500     0.00390625
      156           0.312500   0.437500   0.437500     0.00390625
      157           0.312500   0.437500   0.562500     0.00390625
      158           0.312500   0.437500   0.687500     0.00390625
      159           0.312500   0.437500   0.812500     0.00390625
      160           0.312500   0.437500   0.937500     0.00390625
      161           0.312500   0.562500   0.062500     0.00390625
      162           0.312500   0.562500   0.187500     0.00390625
      163           0.312500   0.562500   0.312500     0.00390625
      164           0.312500   0.562500   0.437500     0.00390625
      165           0.312500   0.562500   0.562500     0.00390625
      166           0.312500   0.562500   0.687500     0.00390625
      167           0.312500   0.562500   0.812500     0.00390625
      168           0.312500   0.562500   0.937500     0.00390625
      169           0.312500   0.687500   0.062500     0.00390625
      170           0.312500   0.687500   0.187500     0.00390625
      171           0.312500   0.687500   0.312500     0.00390625
      172           0.312500   0.687500   0.437500     0.00390625
      173           0.312500   0.687500   0.562500     0.00390625
      174           0.312500   0.687500   0.687500     0.00390625
      175           0.312500   0.687500   0.812500     0.00390625
      176           0.312500   0.687500   0.937500     0.00390625
      177           0.312500   0.812500   0.062500     0.00390625
      178           0.312500   0.812500   0.187500     0.00390625
      179           0.312500   0.812500   0.312500     0.00390625
      180           0.312500   0.812500   0.437500     0.00390625
      181           0.312500   0.812500   0.562500     0.00390625
      182           0.312500   0.812500   0.687500     0.00390625
      183           0.312500   0.812500   0.812500     0.00390625
      184           0.312500   0.812500   0.937500     0.00390625
      185           0.312500   0.937500   0.062500     0.00390625
      186           0.312500   0.937500   0.187500     0.00390625
      187           0.312500   0.937500   0.312500     0.00390625
      188           0.312500   0.937500   0.437500     0.00390625
      189           0.312500   0.937500   0.562500     0.00390625
      190           0.312500   0.937500   0.687500     0.00390625
      191           0.312500   0.937500   0.812500     0.00390625
      192           0.312500   0.937500   0.937500     0.00390625
      193           0.437500   0.062500   0.062500     0.00390625
      194           0.437500   0.062500   0.187500     0.00390625
      195           0.437500   0.062500   0.312500     0.00390625
      196           0.437500   0.062500   0.437500     0.00390625
      197           0.437500   0.062500   0.562500     0.00390625
      198           0.437500   0.062500   0.687500     0.00390625
      199           0.437500   0.062500   0.812500     0.00390625
      200           0.437500   0.062500   0.937500     0.00390625
      201           0.437500   0.187500   0.062500     0.00390625
      202           0.437500   0.187500   0.187500     0.00390625
      203           0.437500   0.187500   0.312500     0.00390625
      204           0.437500   0.187500   0.437500     0.00390625
      205           0.437500   0.187500   0.562500     0.00390625
      206           0.437500   0.187500   0.687500     0.00390625
      207           0.437500   0.187500   0.812500     0.00390625
      208           0.437500   0.187500   0.937500     0.00390625
      209           0.437500   0.312500   0.062500     0.00390625
      210           0.437500   0.312500   0.187500     0.00390625
      211           0.437500   0.312500   0.312500     0.00390625
      212           0.437500   0.312500   0.437500     0.00390625
      213           0.437500   0.312500   0.562500     0.00390625
      214           0.437500   0.312500   0.687500     0.00390625
      215           0.437500   0.312500   0.812500     0.00390625
      216           0.437500   0.312500   0.937500     0.00390625
      217           0.437500   0.437500   0.062500     0.00390625
      218           0.437500   0.437500   0.187500     0.00390625
      219           0.437500   0.437500   0.312500     0.00390625
      220           0.437500   0.437500   0.437500     0.00390625
      221           0.437500   0.437500   0.562500     0.00390625
      222           0.437500   0.437500   0.687500     0.00390625
      223           0.437500   0.437500   0.812500     0.00390625
      224           0.437500   0.437500   0.937500     0.00390625
      225           0.437500   0.562500   0.062500     0.00390625
      226           0.437500   0.562500   0.187500     0.00390625
      227           0.437500   0.562500   0.312500     0.00390625
      228           0.437500   0.562500   0.437500     0.00390625
      229           0.437500   0.562500   0.562500     0.00390625
      230           0.437500   0.562500   0.687500     0.00390625
      231           0.437500   0.562500   0.812500     0.00390625
      232           0.437500   0.562500   0.937500     0.00390625
      233           0.437500   0.687500   0.062500     0.00390625
      234           0.437500   0.687500   0.187500     0.00390625
      235           0.437500   0.687500   0.312500     0.00390625
      236           0.437500   0.687500   0.437500     0.00390625
      237           0.437500   0.687500   0.562500     0.00390625
      238           0.437500   0.687500   0.687500     0.00390625
      239           0.437500   0.687500   0.812500     0.00390625
      240           0.437500   0.687500   0.937500     0.00390625
      241           0.437500   0.812500   0.062500     0.00390625
      242           0.437500   0.812500   0.187500     0.00390625
      243           0.437500   0.812500   0.312500     0.00390625
      244           0.437500   0.812500   0.437500     0.00390625
      245           0.437500   0.812500   0.562500     0.00390625
      246           0.437500   0.812500   0.687500     0.00390625
      247           0.437500   0.812500   0.812500     0.00390625
      248           0.437500   0.812500   0.937500     0.00390625
      249           0.437500   0.937500   0.062500     0.00390625
      250           0.437500   0.937500   0.187500     0.00390625
      251           0.437500   0.937500   0.312500     0.00390625
      252           0.437500   0.937500   0.437500     0.00390625
      253           0.437500   0.937500   0.562500     0.00390625
      254           0.437500   0.937500   0.687500     0.00390625
      255           0.437500   0.937500   0.812500     0.00390625
      256           0.437500   0.937500   0.937500     0.00390625
--------------------------------------------------------------------------------


********************************************************************************
*  General input information                                                   *
********************************************************************************

  Species output for all configurations : 

--------------------------------------------------------------------------------
  Species    Type    Atomic    Atomic    Charge       Radii (Angs)     Library
                     Number     Mass       (e)     Cova   Ionic  VDW   Symbol
--------------------------------------------------------------------------------
    C        Core        6      12.01   0.000000   0.770  0.000  1.530          
--------------------------------------------------------------------------------


  Lattice summation method               =    Ewald          (3-D)
                                         =    Parry          (2-D)
                                         =    Saunders et al (1-D)
  Accuracy factor for lattice sums       =   12.000


  Time limit = Infinity

  Maximum range for interatomic potentials =    100000.000000 Angstroms

  Brenner et al 2002 potential to be used with explicit splines for P


********************************************************************************
*  Output for configuration   1                                                *
********************************************************************************


  Components of energy : 

--------------------------------------------------------------------------------
  Interatomic potentials     =           0.00000000 eV    
  Brenner potentials         =         -58.91714799 eV    
  Monopole - monopole (real) =           0.00000000 eV    
  Monopole - monopole (recip)=           0.00000000 eV    
  Monopole - monopole (total)=           0.00000000 eV    
--------------------------------------------------------------------------------
  Total lattice energy       =         -58.91714799 eV    
--------------------------------------------------------------------------------
  Total lattice energy       =           -5684.6041 kJ/(mole unit cells)
--------------------------------------------------------------------------------


  Elastic Constant Matrix: (Units=GPa)

-------------------------------------------------------------------------------
  Indices      1         2         3         4         5         6    
-------------------------------------------------------------------------------
       1   1005.8927   99.4780   99.4780   -0.0000    0.0000   -0.0000
       2     99.4780 1005.8927   99.4780   -0.0000    0.0000   -0.0000
       3     99.4780   99.4780 1005.8927   -0.0000   -0.0000   -0.0000
       4     -0.0000   -0.0000   -0.0000  669.6191   -0.0000    0.0000
       5      0.0000    0.0000   -0.0000   -0.0000  669.6191    0.0000
       6     -0.0000   -0.0000   -0.0000    0.0000    0.0000  669.6191
-------------------------------------------------------------------------------

  Elastic Constant Tensor Eigenvalues: (Units=GPa)

-------------------------------------------------------------------------------
     1 =   669.6191     2 =   669.6191     3 =   669.6191
     4 =   906.4147     5 =   906.4147     6 =  1204.8487
-------------------------------------------------------------------------------


  Elastic Compliance Matrix: (Units=1/GPa)

-------------------------------------------------------------------------------
  Indices      1         2         3         4         5         6    
-------------------------------------------------------------------------------
       1    0.001012 -0.000091 -0.000091  0.000000 -0.000000  0.000000
       2   -0.000091  0.001012 -0.000091  0.000000 -0.000000 -0.000000
       3   -0.000091 -0.000091  0.001012  0.000000  0.000000  0.000000
       4    0.000000  0.000000  0.000000  0.001493  0.000000 -0.000000
       5   -0.000000 -0.000000  0.000000  0.000000  0.001493 -0.000000
       6    0.000000 -0.000000  0.000000 -0.000000 -0.000000  0.001493
-------------------------------------------------------------------------------

  Mechanical properties :

-------------------------------------------------------------------------------
  Convention :                    Reuss         Voigt         Hill
-------------------------------------------------------------------------------
  Bulk  Modulus (GPa)     =     401.61625     401.61625     401.61625
  Shear Modulus (GPa)     =     562.23046     583.05437     572.64242
-------------------------------------------------------------------------------
  Velocity S-wave (km/s)  =      12.80403      13.03899      12.92205
  Velocity P-wave (km/s)  =      18.32212      18.54174      18.43226
-------------------------------------------------------------------------------
  Compressibility (1/GPa) =    0.00248994
-------------------------------------------------------------------------------
  Stress axis :                     x             y             z
-------------------------------------------------------------------------------
  Youngs Moduli (GPa)     =     987.98764     987.98764     987.98764
-------------------------------------------------------------------------------
  Poissons Ratio (x)      =                     0.09000       0.09000
  Poissons Ratio (y)      =       0.09000                     0.09000
  Poissons Ratio (z)      =       0.09000       0.09000
-------------------------------------------------------------------------------


  Piezoelectric Strain Matrix: (Units=C/m**2)

-------------------------------------------------------------------------------
  Indices      1         2         3         4         5         6    
-------------------------------------------------------------------------------
       x    -0.00000  -0.00000  -0.00000  -0.00000  -0.00000  -0.00000
       y    -0.00000  -0.00000  -0.00000  -0.00000  -0.00000  -0.00000
       z    -0.00000  -0.00000  -0.00000  -0.00000  -0.00000  -0.00000
-------------------------------------------------------------------------------


  Piezoelectric Stress Matrix: (Units=10**-11 C/N)

-------------------------------------------------------------------------------
  Indices      1         2         3         4         5         6    
-------------------------------------------------------------------------------
       x     0.00000   0.00000   0.00000   0.00000   0.00000   0.00000
       y     0.00000   0.00000   0.00000   0.00000   0.00000   0.00000
       z     0.00000   0.00000   0.00000   0.00000   0.00000   0.00000
-------------------------------------------------------------------------------


  Static dielectric constant tensor : 

-------------------------------------------------------------------------------
              x         y         z
-------------------------------------------------------------------------------
       x     1.00000   0.00000   0.00000
       y     0.00000   1.00000   0.00000
       z     0.00000   0.00000   1.00000
--------------------------------------------------------------------------------

  Static refractive indices : 

-------------------------------------------------------------------------------
    1 =    1.00000      2 =    1.00000      3 =    1.00000
-------------------------------------------------------------------------------


  Phonon Calculation : 

  Number of k points for this configuration =      256

--------------------------------------------------------------------------------
  K point      1 =   0.062500  0.062500  0.062500  Weight =    0.004
--------------------------------------------------------------------------------

  Frequencies (cm-1) [NB: Negative implies an imaginary mode]:

  123.86  123.86  193.42 1030.96 1030.96 1030.96 1042.19 1042.19 1042.19
 1173.09 1173.09 1173.09 1211.40 1211.40 1211.40 1241.14 1241.14 1241.14
 1307.26 1307.26 1307.26 1514.98 1514.98 1519.42


--------------------------------------------------------------------------------
  K point      2 =   0.062500  0.062500  0.187500  Weight =    0.004
--------------------------------------------------------------------------------

  Frequencies (cm-1) [NB: Negative implies an imaginary mode]:

  242.73  257.94  347.34  941.83  949.53 1023.24 1023.24 1054.62 1054.62
 1095.49 1129.53 1129.53 1199.74 1199.74 1272.82 1272.82 1275.37 1282.73
 1321.91 1321.91 1372.67 1502.93 1503.56 1516.08


--------------------------------------------------------------------------------
  K point      3 =   0.062500  0.062500  0.312500  Weight =    0.004
--------------------------------------------------------------------------------

  Frequencies (cm-1) [NB: Negative implies an imaginary mode]:

  396.87  407.27  515.66  825.37  830.09  974.78 1021.93 1021.93 1065.60
 1065.60 1088.93 1088.93 1180.40 1180.40 1302.08 1302.08 1337.02 1337.02
 1342.19 1346.72 1424.80 1480.56 1480.64 1506.58


--------------------------------------------------------------------------------
  K point      4 =   0.062500  0.062500  0.437500  Weight =    0.004
--------------------------------------------------------------------------------

  Frequencies (cm-1) [NB: Negative implies an imaginary mode]:

  550.25  554.50  680.46  694.91  695.78  834.96 1029.10 1029.10 1055.05
 1055.05 1076.26 1076.26 1167.48 1167.48 1318.45 1318.45 1345.43 1345.43
 1399.78 1402.50 1446.06 1447.20 1463.13 1489.62


--------------------------------------------------------------------------------
  K point      5 =   0.062500  0.062500  0.562500  Weight =    0.004
--------------------------------------------------------------------------------

  Frequencies (cm-1) [NB: Negative implies an imaginary mode]:

  550.25  554.50  680.46  694.91  695.78  834.96 1029.10 1029.10 1055.05
 1055.05 1076.26 1076.26 1167.48 1167.48 1318.45 1318.45 1345.43 1345.43
 1399.78 1402.50 1446.06 1447.20 1463.13 1489.62


--------------------------------------------------------------------------------
  K point      6 =   0.062500  0.062500  0.687500  Weight =    0.004
--------------------------------------------------------------------------------

  Frequencies (cm-1) [NB: Negative implies an imaginary mode]:

  396.87  407.27  515.66  825.37  830.09  974.78 1021.93 1021.93 1065.60
 1065.60 1088.93 1088.93 1180.40 1180.40 1302.08 1302.08 1337.02 1337.02
 1342.19 1346.72 1424.80 1480.56 1480.64 1506.58


--------------------------------------------------------------------------------
  K point      7 =   0.062500  0.062500  0.812500  Weight =    0.004
--------------------------------------------------------------------------------

  Frequencies (cm-1) [NB: Negative implies an imaginary mode]:

  242.73  257.94  347.34  941.83  949.53 1023.24 1023.24 1054.62 1054.62
 1095.49 1129.53 1129.53 1199.74 1199.74 1272.82 1272.82 1275.37 1282.73
 1321.91 1321.91 1372.67 1502.93 1503.56 1516.08


--------------------------------------------------------------------------------
  K point      8 =   0.062500  0.062500  0.937500  Weight =    0.004
--------------------------------------------------------------------------------

  Frequencies (cm-1) [NB: Negative implies an imaginary mode]:

  123.86  123.86  193.42 1030.96 1030.96 1030.96 1042.19 1042.19 1042.19
 1173.09 1173.09 1173.09 1211.40 1211.40 1211.40 1241.14 1241.14 1241.14
 1307.26 1307.26 1307.26 1514.98 1514.98 1519.42


--------------------------------------------------------------------------------
  K point      9 =   0.062500  0.187500  0.062500  Weight =    0.004
--------------------------------------------------------------------------------

  Frequencies (cm-1) [NB: Negative implies an imaginary mode]:

  242.73  257.94  347.34  941.83  949.53 1023.24 1023.24 1054.62 1054.62
 1095.49 1129.53 1129.53 1199.74 1199.74 1272.82 1272.82 1275.37 1282.73
 1321.91 1321.91 1372.67 1502.93 1503.56 1516.08


--------------------------------------------------------------------------------
  K point     10 =   0.062500  0.187500  0.187500  Weight =    0.004
--------------------------------------------------------------------------------

  Frequencies (cm-1) [NB: Negative implies an imaginary mode]:

  291.17  339.66  463.65  939.94  939.94  962.96  962.96  989.98 1071.22
 1073.53 1073.53 1104.39 1228.04 1249.65 1269.67 1269.67 1306.00 1306.00
 1348.20 1367.99 1367.99 1488.96 1493.06 1514.07


--------------------------------------------------------------------------------
  K point     11 =   0.062500  0.187500  0.312500  Weight =    0.004
--------------------------------------------------------------------------------

  Frequencies (cm-1) [NB: Negative implies an imaginary mode]:

  405.81  462.68  601.29  822.59  849.80  941.05  962.85  980.32  981.34
 1053.42 1054.86 1090.39 1222.58 1257.78 1277.13 1333.86 1335.17 1356.95
 1358.85 1366.18 1415.22 1465.68 1472.69 1504.03


--------------------------------------------------------------------------------
  K point     12 =   0.062500  0.187500  0.437500  Weight =    0.004
--------------------------------------------------------------------------------

  Frequencies (cm-1) [NB: Negative implies an imaginary mode]:

  545.58  595.23  688.10  726.07  738.34  866.42  942.07  947.05 1003.16
 1027.92 1053.03 1070.89 1227.82 1242.46 1309.99 1334.78 1362.28 1370.84
 1389.85 1403.97 1433.10 1442.76 1454.67 1484.39


--------------------------------------------------------------------------------
  K point     13 =   0.062500  0.187500  0.562500  Weight =    0.004
--------------------------------------------------------------------------------

  Frequencies (cm-1) [NB: Negative implies an imaginary mode]:

  545.58  595.23  688.10  726.07  738.34  866.42  942.07  947.05 1003.16
 1027.92 1053.03 1070.89 1227.82 1242.46 1309.99 1334.78 1362.28 1370.84
 1389.85 1403.97 1433.10 1442.76 1454.67 1484.39


--------------------------------------------------------------------------------
  K point     14 =   0.062500  0.187500  0.687500  Weight =    0.004
--------------------------------------------------------------------------------

  Frequencies (cm-1) [NB: Negative implies an imaginary mode]:

  405.81  462.68  601.29  822.59  849.80  941.05  962.85  980.32  981.34
 1053.42 1054.86 1090.39 1222.58 1257.78 1277.13 1333.86 1335.17 1356.95
 1358.85 1366.18 1415.22 1465.68 1472.69 1504.03


--------------------------------------------------------------------------------
  K point     15 =   0.062500  0.187500  0.812500  Weight =    0.004
--------------------------------------------------------------------------------

  Frequencies (cm-1) [NB: Negative implies an imaginary mode]:

  291.17  339.66  463.65  939.94  939.94  962.96  962.96  989.98 1071.22
 1073.53 1073.53 1104.39 1228.04 1249.65 1269.67 1269.67 1306.00 1306.00
 1348.20 1367.99 1367.99 1488.96 1493.06 1514.07


--------------------------------------------------------------------------------
  K point     16 =   0.062500  0.187500  0.937500  Weight =    0.004
--------------------------------------------------------------------------------

  Frequencies (cm-1) [NB: Negative implies an imaginary mode]:

  242.73  257.94  347.34  941.83  949.53 1023.24 1023.24 1054.62 1054.62
 1095.49 1129.53 1129.53 1199.74 1199.74 1272.82 1272.82 1275.37 1282.73
 1321.91 1321.91 1372.67 1502.93 1503.56 1516.08


--------------------------------------------------------------------------------
  K point     17 =   0.062500  0.312500  0.062500  Weight =    0.004
--------------------------------------------------------------------------------

  Frequencies (cm-1) [NB: Negative implies an imaginary mode]:

  396.87  407.27  515.66  825.37  830.09  974.78 1021.93 1021.93 1065.60
 1065.60 1088.93 1088.93 1180.40 1180.40 1302.08 1302.08 1337.02 1337.02
 1342.19 1346.72 1424.80 1480.56 1480.64 1506.58


--------------------------------------------------------------------------------
  K point     18 =   0.062500  0.312500  0.187500  Weight =    0.004
--------------------------------------------------------------------------------

  Frequencies (cm-1) [NB: Negative implies an imaginary mode]:

  405.81  462.68  601.29  822.59  849.80  941.05  962.85  980.32  981.34
 1053.42 1054.86 1090.39 1222.58 1257.78 1277.13 1333.86 1335.17 1356.95
 1358.85 1366.18 1415.22 1465.68 1472.69 1504.03


--------------------------------------------------------------------------------
  K point     19 =   0.062500  0.312500  0.312500  Weight =    0.004
--------------------------------------------------------------------------------

  Frequencies (cm-1) [NB: Negative implies an imaginary mode]:

  467.33  557.71  707.45  822.24  822.24  887.00  887.00  905.99  992.17
  992.17 1022.20 1073.09 1265.07 1283.21 1321.68 1321.68 1372.33 1372.33
 1384.86 1395.78 1395.78 1441.63 1457.06 1492.87


--------------------------------------------------------------------------------
  K point     20 =   0.062500  0.312500  0.437500  Weight =    0.004
--------------------------------------------------------------------------------

  Frequencies (cm-1) [NB: Negative implies an imaginary mode]:

  571.15  668.31  694.73  780.87  813.43  833.23  861.10  910.23  934.48
  982.30 1011.57 1040.07 1283.54 1303.45 1326.94 1366.19 1371.38 1385.66
 1391.02 1405.68 1410.44 1434.31 1436.83 1470.48


--------------------------------------------------------------------------------
  K point     21 =   0.062500  0.312500  0.562500  Weight =    0.004
--------------------------------------------------------------------------------

  Frequencies (cm-1) [NB: Negative implies an imaginary mode]:

  571.15  668.31  694.73  780.87  813.43  833.23  861.10  910.23  934.48
  982.30 1011.57 1040.07 1283.54 1303.45 1326.94 1366.19 1371.38 1385.66
 1391.02 1405.68 1410.44 1434.31 1436.83 1470.48


--------------------------------------------------------------------------------
  K point     22 =   0.062500  0.312500  0.687500  Weight =    0.004
--------------------------------------------------------------------------------

  Frequencies (cm-1) [NB: Negative implies an imaginary mode]:

  467.33  557.71  707.45  822.24  822.24  887.00  887.00  905.99  992.17
  992.17 1022.20 1073.09 1265.07 1283.21 1321.68 1321.68 1372.33 1372.33
 1384.86 1395.78 1395.78 1441.63 1457.06 1492.87


--------------------------------------------------------------------------------
  K point     23 =   0.062500  0.312500  0.812500  Weight =    0.004
--------------------------------------------------------------------------------

  Frequencies (cm-1) [NB: Negative implies an imaginary mode]:

  405.81  462.68  601.29  822.59  849.80  941.05  962.85  980.32  981.34
 1053.42 1054.86 1090.39 1222.58 1257.78 1277.13 1333.86 1335.17 1356.95
 1358.85 1366.18 1415.22 1465.68 1472.69 1504.03


--------------------------------------------------------------------------------
  K point     24 =   0.062500  0.312500  0.937500  Weight =    0.004
--------------------------------------------------------------------------------

  Frequencies (cm-1) [NB: Negative implies an imaginary mode]:

  396.87  407.27  515.66  825.37  830.09  974.78 1021.93 1021.93 1065.60
 1065.60 1088.93 1088.93 1180.40 1180.40 1302.08 1302.08 1337.02 1337.02
 1342.19 1346.72 1424.80 1480.56 1480.64 1506.58


--------------------------------------------------------------------------------
  K point     25 =   0.062500  0.437500  0.062500  Weight =    0.004
--------------------------------------------------------------------------------

  Frequencies (cm-1) [NB: Negative implies an imaginary mode]:

  550.25  554.50  680.46  694.91  695.78  834.96 1029.10 1029.10 1055.05
 1055.05 1076.26 1076.26 1167.48 1167.48 1318.45 1318.45 1345.43 1345.43
 1399.78 1402.50 1446.06 1447.20 1463.13 1489.62


--------------------------------------------------------------------------------
  K point     26 =   0.062500  0.437500  0.187500  Weight =    0.004
--------------------------------------------------------------------------------

  Frequencies (cm-1) [NB: Negative implies an imaginary mode]:

  545.58  595.23  688.10  726.07  738.34  866.42  942.07  947.05 1003.16
 1027.92 1053.03 1070.89 1227.82 1242.46 1309.99 1334.78 1362.28 1370.84
 1389.85 1403.97 1433.10 1442.76 1454.67 1484.39


--------------------------------------------------------------------------------
  K point     27 =   0.062500  0.437500  0.312500  Weight =    0.004
--------------------------------------------------------------------------------

  Frequencies (cm-1) [NB: Negative implies an imaginary mode]:

  571.15  668.31  694.73  780.87  813.43  833.23  861.10  910.23  934.48
  982.30 1011.57 1040.07 1283.54 1303.45 1326.94 1366.19 1371.38 1385.66
 1391.02 1405.68 1410.44 1434.31 1436.83 1470.48


--------------------------------------------------------------------------------
  K point     28 =   0.062500  0.437500  0.437500  Weight =    0.004
--------------------------------------------------------------------------------

  Frequencies (cm-1) [NB: Negative implies an imaginary mode]:

  634.94  726.79  726.79  757.33  784.46  849.47  849.47  888.31  920.39
  955.65  955.65  999.37 1319.08 1347.09 1347.09 1366.27 1381.48 1400.83
 1400.83 1403.41 1412.73 1412.73 1421.08 1445.72


--------------------------------------------------------------------------------
  K point     29 =   0.062500  0.437500  0.562500  Weight =    0.004
--------------------------------------------------------------------------------

  Frequencies (cm-1) [NB: Negative implies an imaginary mode]:

  634.94  726.79  726.79  757.33  784.46  849.47  849.47  888.31  920.39
  955.65  955.65  999.37 1319.08 1347.09 1347.09 1366.27 1381.48 1400.83
 1400.83 1403.41 1412.73 1412.73 1421.08 1445.72


--------------------------------------------------------------------------------
  K point     30 =   0.062500  0.437500  0.687500  Weight =    0.004
--------------------------------------------------------------------------------

  Frequencies (cm-1) [NB: Negative implies an imaginary mode]:

  571.15  668.31  694.73  780.87  813.43  833.23  861.10  910.23  934.48
  982.30 1011.57 1040.07 1283.54 1303.45 1326.94 1366.19 1371.38 1385.66
 1391.02 1405.68 1410.44 1434.31 1436.83 1470.48


--------------------------------------------------------------------------------
  K point     31 =   0.062500  0.437500  0.812500  Weight =    0.004
--------------------------------------------------------------------------------

  Frequencies (cm-1) [NB: Negative implies an imaginary mode]:

  545.58  595.23  688.10  726.07  738.34  866.42  942.07  947.05 1003.16
 1027.92 1053.03 1070.89 1227.82 1242.46 1309.99 1334.78 1362.28 1370.84
 1389.85 1403.97 1433.10 1442.76 1454.67 1484.39


--------------------------------------------------------------------------------
  K point     32 =   0.062500  0.437500  0.937500  Weight =    0.004
--------------------------------------------------------------------------------

  Frequencies (cm-1) [NB: Negative implies an imaginary mode]:

  550.25  554.50  680.46  694.91  695.78  834.96 1029.10 1029.10 1055.05
 1055.05 1076.26 1076.26 1167.48 1167.48 1318.45 1318.45 1345.43 1345.43
 1399.78 1402.50 1446.06 1447.20 1463.13 1489.62


--------------------------------------------------------------------------------
  K point     33 =   0.062500  0.562500  0.062500  Weight =    0.004
--------------------------------------------------------------------------------

  Frequencies (cm-1) [NB: Negative implies an imaginary mode]:

  550.25  554.50  680.46  694.91  695.78  834.96 1029.10 1029.10 1055.05
 1055.05 1076.26 1076.26 1167.48 1167.48 1318.45 1318.45 1345.43 1345.43
 1399.78 1402.50 1446.06 1447.20 1463.13 1489.62


--------------------------------------------------------------------------------
  K point     34 =   0.062500  0.562500  0.187500  Weight =    0.004
--------------------------------------------------------------------------------

  Frequencies (cm-1) [NB: Negative implies an imaginary mode]:

  545.58  595.23  688.10  726.07  738.34  866.42  942.07  947.05 1003.16
 1027.92 1053.03 1070.89 1227.82 1242.46 1309.99 1334.78 1362.28 1370.84
 1389.85 1403.97 1433.10 1442.76 1454.67 1484.39


--------------------------------------------------------------------------------
  K point     35 =   0.062500  0.562500  0.312500  Weight =    0.004
--------------------------------------------------------------------------------

  Frequencies (cm-1) [NB: Negative implies an imaginary mode]:

  571.15  668.31  694.73  780.87  813.43  833.23  861.10  910.23  934.48
  982.30 1011.57 1040.07 1283.54 1303.45 1326.94 1366.19 1371.38 1385.66
 1391.02 1405.68 1410.44 1434.31 1436.83 1470.48


--------------------------------------------------------------------------------
  K point     36 =   0.062500  0.562500  0.437500  Weight =    0.004
--------------------------------------------------------------------------------

  Frequencies (cm-1) [NB: Negative implies an imaginary mode]:

  634.94  726.79  726.79  757.33  784.46  849.47  849.47  888.31  920.39
  955.65  955.65  999.37 1319.08 1347.09 1347.09 1366.27 1381.48 1400.83
 1400.83 1403.41 1412.73 1412.73 1421.08 1445.72


--------------------------------------------------------------------------------
  K point     37 =   0.062500  0.562500  0.562500  Weight =    0.004
--------------------------------------------------------------------------------

  Frequencies (cm-1) [NB: Negative implies an imaginary mode]:

  634.94  726.79  726.79  757.33  784.46  849.47  849.47  888.31  920.39
  955.65  955.65  999.37 1319.08 1347.09 1347.09 1366.27 1381.48 1400.83
 1400.83 1403.41 1412.73 1412.73 1421.08 1445.72


--------------------------------------------------------------------------------
  K point     38 =   0.062500  0.562500  0.687500  Weight =    0.004
--------------------------------------------------------------------------------

  Frequencies (cm-1) [NB: Negative implies an imaginary mode]:

  571.15  668.31  694.73  780.87  813.43  833.23  861.10  910.23  934.48
  982.30 1011.57 1040.07 1283.54 1303.45 1326.94 1366.19 1371.38 1385.66
 1391.02 1405.68 1410.44 1434.31 1436.83 1470.48


--------------------------------------------------------------------------------
  K point     39 =   0.062500  0.562500  0.812500  Weight =    0.004
--------------------------------------------------------------------------------

  Frequencies (cm-1) [NB: Negative implies an imaginary mode]:

  545.58  595.23  688.10  726.07  738.34  866.42  942.07  947.05 1003.16
 1027.92 1053.03 1070.89 1227.82 1242.46 1309.99 1334.78 1362.28 1370.84
 1389.85 1403.97 1433.10 1442.76 1454.67 1484.39


--------------------------------------------------------------------------------
  K point     40 =   0.062500  0.562500  0.937500  Weight =    0.004
--------------------------------------------------------------------------------

  Frequencies (cm-1) [NB: Negative implies an imaginary mode]:

  550.25  554.50  680.46  694.91  695.78  834.96 1029.10 1029.10 1055.05
 1055.05 1076.26 1076.26 1167.48 1167.48 1318.45 1318.45 1345.43 1345.43
 1399.78 1402.50 1446.06 1447.20 1463.13 1489.62


--------------------------------------------------------------------------------
  K point     41 =   0.062500  0.687500  0.062500  Weight =    0.004
--------------------------------------------------------------------------------

  Frequencies (cm-1) [NB: Negative implies an imaginary mode]:

  396.87  407.27  515.66  825.37  830.09  974.78 1021.93 1021.93 1065.60
 1065.60 1088.93 1088.93 1180.40 1180.40 1302.08 1302.08 1337.02 1337.02
 1342.19 1346.72 1424.80 1480.56 1480.64 1506.58


--------------------------------------------------------------------------------
  K point     42 =   0.062500  0.687500  0.187500  Weight =    0.004
--------------------------------------------------------------------------------

  Frequencies (cm-1) [NB: Negative implies an imaginary mode]:

  405.81  462.68  601.29  822.59  849.80  941.05  962.85  980.32  981.34
 1053.42 1054.86 1090.39 1222.58 1257.78 1277.13 1333.86 1335.17 1356.95
 1358.85 1366.18 1415.22 1465.68 1472.69 1504.03


--------------------------------------------------------------------------------
  K point     43 =   0.062500  0.687500  0.312500  Weight =    0.004
--------------------------------------------------------------------------------

  Frequencies (cm-1) [NB: Negative implies an imaginary mode]:

  467.33  557.71  707.45  822.24  822.24  887.00  887.00  905.99  992.17
  992.17 1022.20 1073.09 1265.07 1283.21 1321.68 1321.68 1372.33 1372.33
 1384.86 1395.78 1395.78 1441.63 1457.06 1492.87


--------------------------------------------------------------------------------
  K point     44 =   0.062500  0.687500  0.437500  Weight =    0.004
--------------------------------------------------------------------------------

  Frequencies (cm-1) [NB: Negative implies an imaginary mode]:

  571.15  668.31  694.73  780.87  813.43  833.23  861.10  910.23  934.48
  982.30 1011.57 1040.07 1283.54 1303.45 1326.94 1366.19 1371.38 1385.66
 1391.02 1405.68 1410.44 1434.31 1436.83 1470.48


--------------------------------------------------------------------------------
  K point     45 =   0.062500  0.687500  0.562500  Weight =    0.004
--------------------------------------------------------------------------------

  Frequencies (cm-1) [NB: Negative implies an imaginary mode]:

  571.15  668.31  694.73  780.87  813.43  833.23  861.10  910.23  934.48
  982.30 1011.57 1040.07 1283.54 1303.45 1326.94 1366.19 1371.38 1385.66
 1391.02 1405.68 1410.44 1434.31 1436.83 1470.48


--------------------------------------------------------------------------------
  K point     46 =   0.062500  0.687500  0.687500  Weight =    0.004
--------------------------------------------------------------------------------

  Frequencies (cm-1) [NB: Negative implies an imaginary mode]:

  467.33  557.71  707.45  822.24  822.24  887.00  887.00  905.99  992.17
  992.17 1022.20 1073.09 1265.07 1283.21 1321.68 1321.68 1372.33 1372.33
 1384.86 1395.78 1395.78 1441.63 1457.06 1492.87


--------------------------------------------------------------------------------
  K point     47 =   0.062500  0.687500  0.812500  Weight =    0.004
--------------------------------------------------------------------------------

  Frequencies (cm-1) [NB: Negative implies an imaginary mode]:

  405.81  462.68  601.29  822.59  849.80  941.05  962.85  980.32  981.34
 1053.42 1054.86 1090.39 1222.58 1257.78 1277.13 1333.86 1335.17 1356.95
 1358.85 1366.18 1415.22 1465.68 1472.69 1504.03


--------------------------------------------------------------------------------
  K point     48 =   0.062500  0.687500  0.937500  Weight =    0.004
--------------------------------------------------------------------------------

  Frequencies (cm-1) [NB: Negative implies an imaginary mode]:

  396.87  407.27  515.66  825.37  830.09  974.78 1021.93 1021.93 1065.60
 1065.60 1088.93 1088.93 1180.40 1180.40 1302.08 1302.08 1337.02 1337.02
 1342.19 1346.72 1424.80 1480.56 1480.64 1506.58


--------------------------------------------------------------------------------
  K point     49 =   0.062500  0.812500  0.062500  Weight =    0.004
--------------------------------------------------------------------------------

  Frequencies (cm-1) [NB: Negative implies an imaginary mode]:

  242.73  257.94  347.34  941.83  949.53 1023.24 1023.24 1054.62 1054.62
 1095.49 1129.53 1129.53 1199.74 1199.74 1272.82 1272.82 1275.37 1282.73
 1321.91 1321.91 1372.67 1502.93 1503.56 1516.08


--------------------------------------------------------------------------------
  K point     50 =   0.062500  0.812500  0.187500  Weight =    0.004
--------------------------------------------------------------------------------

  Frequencies (cm-1) [NB: Negative implies an imaginary mode]:

  291.17  339.66  463.65  939.94  939.94  962.96  962.96  989.98 1071.22
 1073.53 1073.53 1104.39 1228.04 1249.65 1269.67 1269.67 1306.00 1306.00
 1348.20 1367.99 1367.99 1488.96 1493.06 1514.07


--------------------------------------------------------------------------------
  K point     51 =   0.062500  0.812500  0.312500  Weight =    0.004
--------------------------------------------------------------------------------

  Frequencies (cm-1) [NB: Negative implies an imaginary mode]:

  405.81  462.68  601.29  822.59  849.80  941.05  962.85  980.32  981.34
 1053.42 1054.86 1090.39 1222.58 1257.78 1277.13 1333.86 1335.17 1356.95
 1358.85 1366.18 1415.22 1465.68 1472.69 1504.03


--------------------------------------------------------------------------------
  K point     52 =   0.062500  0.812500  0.437500  Weight =    0.004
--------------------------------------------------------------------------------

  Frequencies (cm-1) [NB: Negative implies an imaginary mode]:

  545.58  595.23  688.10  726.07  738.34  866.42  942.07  947.05 1003.16
 1027.92 1053.03 1070.89 1227.82 1242.46 1309.99 1334.78 1362.28 1370.84
 1389.85 1403.97 1433.10 1442.76 1454.67 1484.39


--------------------------------------------------------------------------------
  K point     53 =   0.062500  0.812500  0.562500  Weight =    0.004
--------------------------------------------------------------------------------

  Frequencies (cm-1) [NB: Negative implies an imaginary mode]:

  545.58  595.23  688.10  726.07  738.34  866.42  942.07  947.05 1003.16
 1027.92 1053.03 1070.89 1227.82 1242.46 1309.99 1334.78 1362.28 1370.84
 1389.85 1403.97 1433.10 1442.76 1454.67 1484.39


--------------------------------------------------------------------------------
  K point     54 =   0.062500  0.812500  0.687500  Weight =    0.004
--------------------------------------------------------------------------------

  Frequencies (cm-1) [NB: Negative implies an imaginary mode]:

  405.81  462.68  601.29  822.59  849.80  941.05  962.85  980.32  981.34
 1053.42 1054.86 1090.39 1222.58 1257.78 1277.13 1333.86 1335.17 1356.95
 1358.85 1366.18 1415.22 1465.68 1472.69 1504.03


--------------------------------------------------------------------------------
  K point     55 =   0.062500  0.812500  0.812500  Weight =    0.004
--------------------------------------------------------------------------------

  Frequencies (cm-1) [NB: Negative implies an imaginary mode]:

  291.17  339.66  463.65  939.94  939.94  962.96  962.96  989.98 1071.22
 1073.53 1073.53 1104.39 1228.04 1249.65 1269.67 1269.67 1306.00 1306.00
 1348.20 1367.99 1367.99 1488.96 1493.06 1514.07


--------------------------------------------------------------------------------
  K point     56 =   0.062500  0.812500  0.937500  Weight =    0.004
--------------------------------------------------------------------------------

  Frequencies (cm-1) [NB: Negative implies an imaginary mode]:

  242.73  257.94  347.34  941.83  949.53 1023.24 1023.24 1054.62 1054.62
 1095.49 1129.53 1129.53 1199.74 1199.74 1272.82 1272.82 1275.37 1282.73
 1321.91 1321.91 1372.67 1502.93 1503.56 1516.08


--------------------------------------------------------------------------------
  K point     57 =   0.062500  0.937500  0.062500  Weight =    0.004
--------------------------------------------------------------------------------

  Frequencies (cm-1) [NB: Negative implies an imaginary mode]:

  123.86  123.86  193.42 1030.96 1030.96 1030.96 1042.19 1042.19 1042.19
 1173.09 1173.09 1173.09 1211.40 1211.40 1211.40 1241.14 1241.14 1241.14
 1307.26 1307.26 1307.26 1514.98 1514.98 1519.42


--------------------------------------------------------------------------------
  K point     58 =   0.062500  0.937500  0.187500  Weight =    0.004
--------------------------------------------------------------------------------

  Frequencies (cm-1) [NB: Negative implies an imaginary mode]:

  242.73  257.94  347.34  941.83  949.53 1023.24 1023.24 1054.62 1054.62
 1095.49 1129.53 1129.53 1199.74 1199.74 1272.82 1272.82 1275.37 1282.73
 1321.91 1321.91 1372.67 1502.93 1503.56 1516.08


--------------------------------------------------------------------------------
  K point     59 =   0.062500  0.937500  0.312500  Weight =    0.004
--------------------------------------------------------------------------------

  Frequencies (cm-1) [NB: Negative implies an imaginary mode]:

  396.87  407.27  515.66  825.37  830.09  974.78 1021.93 1021.93 1065.60
 1065.60 1088.93 1088.93 1180.40 1180.40 1302.08 1302.08 1337.02 1337.02
 1342.19 1346.72 1424.80 1480.56 1480.64 1506.58


--------------------------------------------------------------------------------
  K point     60 =   0.062500  0.937500  0.437500  Weight =    0.004
--------------------------------------------------------------------------------

  Frequencies (cm-1) [NB: Negative implies an imaginary mode]:

  550.25  554.50  680.46  694.91  695.78  834.96 1029.10 1029.10 1055.05
 1055.05 1076.26 1076.26 1167.48 1167.48 1318.45 1318.45 1345.43 1345.43
 1399.78 1402.50 1446.06 1447.20 1463.13 1489.62


--------------------------------------------------------------------------------
  K point     61 =   0.062500  0.937500  0.562500  Weight =    0.004
--------------------------------------------------------------------------------

  Frequencies (cm-1) [NB: Negative implies an imaginary mode]:

  550.25  554.50  680.46  694.91  695.78  834.96 1029.10 1029.10 1055.05
 1055.05 1076.26 1076.26 1167.48 1167.48 1318.45 1318.45 1345.43 1345.43
 1399.78 1402.50 1446.06 1447.20 1463.13 1489.62


--------------------------------------------------------------------------------
  K point     62 =   0.062500  0.937500  0.687500  Weight =    0.004
--------------------------------------------------------------------------------

  Frequencies (cm-1) [NB: Negative implies an imaginary mode]:

  396.87  407.27  515.66  825.37  830.09  974.78 1021.93 1021.93 1065.60
 1065.60 1088.93 1088.93 1180.40 1180.40 1302.08 1302.08 1337.02 1337.02
 1342.19 1346.72 1424.80 1480.56 1480.64 1506.58


--------------------------------------------------------------------------------
  K point     63 =   0.062500  0.937500  0.812500  Weight =    0.004
--------------------------------------------------------------------------------

  Frequencies (cm-1) [NB: Negative implies an imaginary mode]:

  242.73  257.94  347.34  941.83  949.53 1023.24 1023.24 1054.62 1054.62
 1095.49 1129.53 1129.53 1199.74 1199.74 1272.82 1272.82 1275.37 1282.73
 1321.91 1321.91 1372.67 1502.93 1503.56 1516.08


--------------------------------------------------------------------------------
  K point     64 =   0.062500  0.937500  0.937500  Weight =    0.004
--------------------------------------------------------------------------------

  Frequencies (cm-1) [NB: Negative implies an imaginary mode]:

  123.86  123.86  193.42 1030.96 1030.96 1030.96 1042.19 1042.19 1042.19
 1173.09 1173.09 1173.09 1211.40 1211.40 1211.40 1241.14 1241.14 1241.14
 1307.26 1307.26 1307.26 1514.98 1514.98 1519.42


--------------------------------------------------------------------------------
  K point     65 =   0.187500  0.062500  0.062500  Weight =    0.004
--------------------------------------------------------------------------------

  Frequencies (cm-1) [NB: Negative implies an imaginary mode]:

  242.73  257.94  347.34  941.83  949.53 1023.24 1023.24 1054.62 1054.62
 1095.49 1129.53 1129.53 1199.74 1199.74 1272.82 1272.82 1275.37 1282.73
 1321.91 1321.91 1372.67 1502.93 1503.56 1516.08


--------------------------------------------------------------------------------
  K point     66 =   0.187500  0.062500  0.187500  Weight =    0.004
--------------------------------------------------------------------------------

  Frequencies (cm-1) [NB: Negative implies an imaginary mode]:

  291.17  339.66  463.65  939.94  939.94  962.96  962.96  989.98 1071.22
 1073.53 1073.53 1104.39 1228.04 1249.65 1269.67 1269.67 1306.00 1306.00
 1348.20 1367.99 1367.99 1488.96 1493.06 1514.07


--------------------------------------------------------------------------------
  K point     67 =   0.187500  0.062500  0.312500  Weight =    0.004
--------------------------------------------------------------------------------

  Frequencies (cm-1) [NB: Negative implies an imaginary mode]:

  405.81  462.68  601.29  822.59  849.80  941.05  962.85  980.32  981.34
 1053.42 1054.86 1090.39 1222.58 1257.78 1277.13 1333.86 1335.17 1356.95
 1358.85 1366.18 1415.22 1465.68 1472.69 1504.03


--------------------------------------------------------------------------------
  K point     68 =   0.187500  0.062500  0.437500  Weight =    0.004
--------------------------------------------------------------------------------

  Frequencies (cm-1) [NB: Negative implies an imaginary mode]:

  545.58  595.23  688.10  726.07  738.34  866.42  942.07  947.05 1003.16
 1027.92 1053.03 1070.89 1227.82 1242.46 1309.99 1334.78 1362.28 1370.84
 1389.85 1403.97 1433.10 1442.76 1454.67 1484.39


--------------------------------------------------------------------------------
  K point     69 =   0.187500  0.062500  0.562500  Weight =    0.004
--------------------------------------------------------------------------------

  Frequencies (cm-1) [NB: Negative implies an imaginary mode]:

  545.58  595.23  688.10  726.07  738.34  866.42  942.07  947.05 1003.16
 1027.92 1053.03 1070.89 1227.82 1242.46 1309.99 1334.78 1362.28 1370.84
 1389.85 1403.97 1433.10 1442.76 1454.67 1484.39


--------------------------------------------------------------------------------
  K point     70 =   0.187500  0.062500  0.687500  Weight =    0.004
--------------------------------------------------------------------------------

  Frequencies (cm-1) [NB: Negative implies an imaginary mode]:

  405.81  462.68  601.29  822.59  849.80  941.05  962.85  980.32  981.34
 1053.42 1054.86 1090.39 1222.58 1257.78 1277.13 1333.86 1335.17 1356.95
 1358.85 1366.18 1415.22 1465.68 1472.69 1504.03


--------------------------------------------------------------------------------
  K point     71 =   0.187500  0.062500  0.812500  Weight =    0.004
--------------------------------------------------------------------------------

  Frequencies (cm-1) [NB: Negative implies an imaginary mode]:

  291.17  339.66  463.65  939.94  939.94  962.96  962.96  989.98 1071.22
 1073.53 1073.53 1104.39 1228.04 1249.65 1269.67 1269.67 1306.00 1306.00
 1348.20 1367.99 1367.99 1488.96 1493.06 1514.07


--------------------------------------------------------------------------------
  K point     72 =   0.187500  0.062500  0.937500  Weight =    0.004
--------------------------------------------------------------------------------

  Frequencies (cm-1) [NB: Negative implies an imaginary mode]:

  242.73  257.94  347.34  941.83  949.53 1023.24 1023.24 1054.62 1054.62
 1095.49 1129.53 1129.53 1199.74 1199.74 1272.82 1272.82 1275.37 1282.73
 1321.91 1321.91 1372.67 1502.93 1503.56 1516.08


--------------------------------------------------------------------------------
  K point     73 =   0.187500  0.187500  0.062500  Weight =    0.004
--------------------------------------------------------------------------------

  Frequencies (cm-1) [NB: Negative implies an imaginary mode]:

  291.17  339.66  463.65  939.94  939.94  962.96  962.96  989.98 1071.22
 1073.53 1073.53 1104.39 1228.04 1249.65 1269.67 1269.67 1306.00 1306.00
 1348.20 1367.99 1367.99 1488.96 1493.06 1514.07


--------------------------------------------------------------------------------
  K point     74 =   0.187500  0.187500  0.187500  Weight =    0.004
--------------------------------------------------------------------------------

  Frequencies (cm-1) [NB: Negative implies an imaginary mode]:

  361.48  361.48  560.49  921.14  921.14  921.14  971.35  971.35  971.35
 1068.54 1068.54 1068.54 1274.94 1274.94 1274.94 1309.40 1309.40 1309.40
 1370.60 1370.60 1370.60 1478.27 1478.27 1513.26


--------------------------------------------------------------------------------
  K point     75 =   0.187500  0.187500  0.312500  Weight =    0.004
--------------------------------------------------------------------------------

  Frequencies (cm-1) [NB: Negative implies an imaginary mode]:

  447.74  468.62  680.43  821.74  846.19  906.87  906.87  965.48  965.48
  999.27 1069.70 1069.70 1272.29 1272.29 1323.49 1323.49 1331.35 1361.86
 1372.28 1372.28 1408.31 1456.37 1456.90 1503.80


--------------------------------------------------------------------------------
  K point     76 =   0.187500  0.187500  0.437500  Weight =    0.004
--------------------------------------------------------------------------------

  Frequencies (cm-1) [NB: Negative implies an imaginary mode]:

  572.37  588.25  708.34  709.98  799.49  900.10  900.10  907.73  955.88
  955.88 1074.13 1074.13 1267.74 1267.74 1336.69 1336.69 1371.43 1371.43
 1382.66 1399.40 1424.92 1429.95 1449.77 1482.81


--------------------------------------------------------------------------------
  K point     77 =   0.187500  0.187500  0.562500  Weight =    0.004
--------------------------------------------------------------------------------

  Frequencies (cm-1) [NB: Negative implies an imaginary mode]:

  572.37  588.25  708.34  709.98  799.49  900.10  900.10  907.73  955.88
  955.88 1074.13 1074.13 1267.74 1267.74 1336.69 1336.69 1371.43 1371.43
 1382.66 1399.40 1424.92 1429.95 1449.77 1482.81


--------------------------------------------------------------------------------
  K point     78 =   0.187500  0.187500  0.687500  Weight =    0.004
--------------------------------------------------------------------------------

  Frequencies (cm-1) [NB: Negative implies an imaginary mode]:

  447.74  468.62  680.43  821.74  846.19  906.87  906.87  965.48  965.48
  999.27 1069.70 1069.70 1272.29 1272.29 1323.49 1323.49 1331.35 1361.86
 1372.28 1372.28 1408.31 1456.37 1456.90 1503.80


--------------------------------------------------------------------------------
  K point     79 =   0.187500  0.187500  0.812500  Weight =    0.004
--------------------------------------------------------------------------------

  Frequencies (cm-1) [NB: Negative implies an imaginary mode]:

  361.48  361.48  560.49  921.14  921.14  921.14  971.35  971.35  971.35
 1068.54 1068.54 1068.54 1274.94 1274.94 1274.94 1309.40 1309.40 1309.40
 1370.60 1370.60 1370.60 1478.27 1478.27 1513.26


--------------------------------------------------------------------------------
  K point     80 =   0.187500  0.187500  0.937500  Weight =    0.004
--------------------------------------------------------------------------------

  Frequencies (cm-1) [NB: Negative implies an imaginary mode]:

  291.17  339.66  463.65  939.94  939.94  962.96  962.96  989.98 1071.22
 1073.53 1073.53 1104.39 1228.04 1249.65 1269.67 1269.67 1306.00 1306.00
 1348.20 1367.99 1367.99 1488.96 1493.06 1514.07


--------------------------------------------------------------------------------
  K point     81 =   0.187500  0.312500  0.062500  Weight =    0.004
--------------------------------------------------------------------------------

  Frequencies (cm-1) [NB: Negative implies an imaginary mode]:

  405.81  462.68  601.29  822.59  849.80  941.05  962.85  980.32  981.34
 1053.42 1054.86 1090.39 1222.58 1257.78 1277.13 1333.86 1335.17 1356.95
 1358.85 1366.18 1415.22 1465.68 1472.69 1504.03


--------------------------------------------------------------------------------
  K point     82 =   0.187500  0.312500  0.187500  Weight =    0.004
--------------------------------------------------------------------------------

  Frequencies (cm-1) [NB: Negative implies an imaginary mode]:

  447.74  468.62  680.43  821.74  846.19  906.87  906.87  965.48  965.48
  999.27 1069.70 1069.70 1272.29 1272.29 1323.49 1323.49 1331.35 1361.86
 1372.28 1372.28 1408.31 1456.37 1456.90 1503.80


--------------------------------------------------------------------------------
  K point     83 =   0.187500  0.312500  0.312500  Weight =    0.004
--------------------------------------------------------------------------------

  Frequencies (cm-1) [NB: Negative implies an imaginary mode]:

  502.78  542.81  779.80  816.08  816.08  856.40  856.40  867.05  937.68
 1026.23 1026.23 1078.90 1288.39 1322.70 1322.70 1327.86 1370.62 1370.62
 1381.63 1394.58 1394.58 1432.96 1439.25 1494.83


--------------------------------------------------------------------------------
  K point     84 =   0.187500  0.312500  0.437500  Weight =    0.004
--------------------------------------------------------------------------------

  Frequencies (cm-1) [NB: Negative implies an imaginary mode]:

  593.41  641.73  705.10  747.61  818.19  835.39  876.74  878.02  906.50
  960.87 1052.69 1072.32 1299.22 1310.97 1349.53 1367.38 1373.41 1380.26
 1384.00 1393.51 1403.96 1416.32 1438.37 1473.37


--------------------------------------------------------------------------------
  K point     85 =   0.187500  0.312500  0.562500  Weight =    0.004
--------------------------------------------------------------------------------

  Frequencies (cm-1) [NB: Negative implies an imaginary mode]:

  593.41  641.73  705.10  747.61  818.19  835.39  876.74  878.02  906.50
  960.87 1052.69 1072.32 1299.22 1310.97 1349.53 1367.38 1373.41 1380.26
 1384.00 1393.51 1403.96 1416.32 1438.37 1473.37


--------------------------------------------------------------------------------
  K point     86 =   0.187500  0.312500  0.687500  Weight =    0.004
--------------------------------------------------------------------------------

  Frequencies (cm-1) [NB: Negative implies an imaginary mode]:

  502.78  542.81  779.80  816.08  816.08  856.40  856.40  867.05  937.68
 1026.23 1026.23 1078.90 1288.39 1322.70 1322.70 1327.86 1370.62 1370.62
 1381.63 1394.58 1394.58 1432.96 1439.25 1494.83


--------------------------------------------------------------------------------
  K point     87 =   0.187500  0.312500  0.812500  Weight =    0.004
--------------------------------------------------------------------------------

  Frequencies (cm-1) [NB: Negative implies an imaginary mode]:

  447.74  468.62  680.43  821.74  846.19  906.87  906.87  965.48  965.48
  999.27 1069.70 1069.70 1272.29 1272.29 1323.49 1323.49 1331.35 1361.86
 1372.28 1372.28 1408.31 1456.37 1456.90 1503.80


--------------------------------------------------------------------------------
  K point     88 =   0.187500  0.312500  0.937500  Weight =    0.004
--------------------------------------------------------------------------------

  Frequencies (cm-1) [NB: Negative implies an imaginary mode]:

  405.81  462.68  601.29  822.59  849.80  941.05  962.85  980.32  981.34
 1053.42 1054.86 1090.39 1222.58 1257.78 1277.13 1333.86 1335.17 1356.95
 1358.85 1366.18 1415.22 1465.68 1472.69 1504.03


--------------------------------------------------------------------------------
  K point     89 =   0.187500  0.437500  0.062500  Weight =    0.004
--------------------------------------------------------------------------------

  Frequencies (cm-1) [NB: Negative implies an imaginary mode]:

  545.58  595.23  688.10  726.07  738.34  866.42  942.07  947.05 1003.16
 1027.92 1053.03 1070.89 1227.82 1242.46 1309.99 1334.78 1362.28 1370.84
 1389.85 1403.97 1433.10 1442.76 1454.67 1484.39


--------------------------------------------------------------------------------
  K point     90 =   0.187500  0.437500  0.187500  Weight =    0.004
--------------------------------------------------------------------------------

  Frequencies (cm-1) [NB: Negative implies an imaginary mode]:

  572.37  588.25  708.34  709.98  799.49  900.10  900.10  907.73  955.88
  955.88 1074.13 1074.13 1267.74 1267.74 1336.69 1336.69 1371.43 1371.43
 1382.66 1399.40 1424.92 1429.95 1449.77 1482.81


--------------------------------------------------------------------------------
  K point     91 =   0.187500  0.437500  0.312500  Weight =    0.004
--------------------------------------------------------------------------------

  Frequencies (cm-1) [NB: Negative implies an imaginary mode]:

  593.41  641.73  705.10  747.61  818.19  835.39  876.74  878.02  906.50
  960.87 1052.69 1072.32 1299.22 1310.97 1349.53 1367.38 1373.41 1380.26
 1384.00 1393.51 1403.96 1416.32 1438.37 1473.37


--------------------------------------------------------------------------------
  K point     92 =   0.187500  0.437500  0.437500  Weight =    0.004
--------------------------------------------------------------------------------

  Frequencies (cm-1) [NB: Negative implies an imaginary mode]:

  646.20  716.49  726.45  726.45  772.67  797.59  797.59  852.56  950.31
 1010.70 1010.70 1049.65 1324.77 1347.13 1347.13 1370.37 1377.45 1385.17
 1385.17 1399.85 1400.55 1420.22 1420.22 1452.66


--------------------------------------------------------------------------------
  K point     93 =   0.187500  0.437500  0.562500  Weight =    0.004
--------------------------------------------------------------------------------

  Frequencies (cm-1) [NB: Negative implies an imaginary mode]:

  646.20  716.49  726.45  726.45  772.67  797.59  797.59  852.56  950.31
 1010.70 1010.70 1049.65 1324.77 1347.13 1347.13 1370.37 1377.45 1385.17
 1385.17 1399.85 1400.55 1420.22 1420.22 1452.66


--------------------------------------------------------------------------------
  K point     94 =   0.187500  0.437500  0.687500  Weight =    0.004
--------------------------------------------------------------------------------

  Frequencies (cm-1) [NB: Negative implies an imaginary mode]:

  593.41  641.73  705.10  747.61  818.19  835.39  876.74  878.02  906.50
  960.87 1052.69 1072.32 1299.22 1310.97 1349.53 1367.38 1373.41 1380.26
 1384.00 1393.51 1403.96 1416.32 1438.37 1473.37


--------------------------------------------------------------------------------
  K point     95 =   0.187500  0.437500  0.812500  Weight =    0.004
--------------------------------------------------------------------------------

  Frequencies (cm-1) [NB: Negative implies an imaginary mode]:

  572.37  588.25  708.34  709.98  799.49  900.10  900.10  907.73  955.88
  955.88 1074.13 1074.13 1267.74 1267.74 1336.69 1336.69 1371.43 1371.43
 1382.66 1399.40 1424.92 1429.95 1449.77 1482.81


--------------------------------------------------------------------------------
  K point     96 =   0.187500  0.437500  0.937500  Weight =    0.004
--------------------------------------------------------------------------------

  Frequencies (cm-1) [NB: Negative implies an imaginary mode]:

  545.58  595.23  688.10  726.07  738.34  866.42  942.07  947.05 1003.16
 1027.92 1053.03 1070.89 1227.82 1242.46 1309.99 1334.78 1362.28 1370.84
 1389.85 1403.97 1433.10 1442.76 1454.67 1484.39


--------------------------------------------------------------------------------
  K point     97 =   0.187500  0.562500  0.062500  Weight =    0.004
--------------------------------------------------------------------------------

  Frequencies (cm-1) [NB: Negative implies an imaginary mode]:

  545.58  595.23  688.10  726.07  738.34  866.42  942.07  947.05 1003.16
 1027.92 1053.03 1070.89 1227.82 1242.46 1309.99 1334.78 1362.28 1370.84
 1389.85 1403.97 1433.10 1442.76 1454.67 1484.39


--------------------------------------------------------------------------------
  K point     98 =   0.187500  0.562500  0.187500  Weight =    0.004
--------------------------------------------------------------------------------

  Frequencies (cm-1) [NB: Negative implies an imaginary mode]:

  572.37  588.25  708.34  709.98  799.49  900.10  900.10  907.73  955.88
  955.88 1074.13 1074.13 1267.74 1267.74 1336.69 1336.69 1371.43 1371.43
 1382.66 1399.40 1424.92 1429.95 1449.77 1482.81


--------------------------------------------------------------------------------
  K point     99 =   0.187500  0.562500  0.312500  Weight =    0.004
--------------------------------------------------------------------------------

  Frequencies (cm-1) [NB: Negative implies an imaginary mode]:

  593.41  641.73  705.10  747.61  818.19  835.39  876.74  878.02  906.50
  960.87 1052.69 1072.32 1299.22 1310.97 1349.53 1367.38 1373.41 1380.26
 1384.00 1393.51 1403.96 1416.32 1438.37 1473.37


--------------------------------------------------------------------------------
  K point    100 =   0.187500  0.562500  0.437500  Weight =    0.004
--------------------------------------------------------------------------------

  Frequencies (cm-1) [NB: Negative implies an imaginary mode]:

  646.20  716.49  726.45  726.45  772.67  797.59  797.59  852.56  950.31
 1010.70 1010.70 1049.65 1324.77 1347.13 1347.13 1370.37 1377.45 1385.17
 1385.17 1399.85 1400.55 1420.22 1420.22 1452.66


--------------------------------------------------------------------------------
  K point    101 =   0.187500  0.562500  0.562500  Weight =    0.004
--------------------------------------------------------------------------------

  Frequencies (cm-1) [NB: Negative implies an imaginary mode]:

  646.20  716.49  726.45  726.45  772.67  797.59  797.59  852.56  950.31
 1010.70 1010.70 1049.65 1324.77 1347.13 1347.13 1370.37 1377.45 1385.17
 1385.17 1399.85 1400.55 1420.22 1420.22 1452.66


--------------------------------------------------------------------------------
  K point    102 =   0.187500  0.562500  0.687500  Weight =    0.004
--------------------------------------------------------------------------------

  Frequencies (cm-1) [NB: Negative implies an imaginary mode]:

  593.41  641.73  705.10  747.61  818.19  835.39  876.74  878.02  906.50
  960.87 1052.69 1072.32 1299.22 1310.97 1349.53 1367.38 1373.41 1380.26
 1384.00 1393.51 1403.96 1416.32 1438.37 1473.37


--------------------------------------------------------------------------------
  K point    103 =   0.187500  0.562500  0.812500  Weight =    0.004
--------------------------------------------------------------------------------

  Frequencies (cm-1) [NB: Negative implies an imaginary mode]:

  572.37  588.25  708.34  709.98  799.49  900.10  900.10  907.73  955.88
  955.88 1074.13 1074.13 1267.74 1267.74 1336.69 1336.69 1371.43 1371.43
 1382.66 1399.40 1424.92 1429.95 1449.77 1482.81


--------------------------------------------------------------------------------
  K point    104 =   0.187500  0.562500  0.937500  Weight =    0.004
--------------------------------------------------------------------------------

  Frequencies (cm-1) [NB: Negative implies an imaginary mode]:

  545.58  595.23  688.10  726.07  738.34  866.42  942.07  947.05 1003.16
 1027.92 1053.03 1070.89 1227.82 1242.46 1309.99 1334.78 1362.28 1370.84
 1389.85 1403.97 1433.10 1442.76 1454.67 1484.39


--------------------------------------------------------------------------------
  K point    105 =   0.187500  0.687500  0.062500  Weight =    0.004
--------------------------------------------------------------------------------

  Frequencies (cm-1) [NB: Negative implies an imaginary mode]:

  405.81  462.68  601.29  822.59  849.80  941.05  962.85  980.32  981.34
 1053.42 1054.86 1090.39 1222.58 1257.78 1277.13 1333.86 1335.17 1356.95
 1358.85 1366.18 1415.22 1465.68 1472.69 1504.03


--------------------------------------------------------------------------------
[...]
--------------------------------------------------------------------------------
  Zero point energy            =        1.649481 eV
  Entropy                      =        0.000001 eV/K
                               =        0.138323 J/(mol.K)
  Helmholtz free-energy        =      -57.267689 eV
                               =    -5525.456072 kJmol-1
  Free energy (equipartition)  =      -58.471512 eV
  - T*S       (equipartition)  =        0.300864 eV
  Uvib        (equipartition)  =        0.144771 eV
  Mean kinetic energy          =        0.824780 eV
  Heat capacity - const volume =        0.000005 eV/K
                               =        0.450061 J/(mol.K)
--------------------------------------------------------------------------------
  Phonon properties (per mole of unit cells): Temperature =     80.000 K
--------------------------------------------------------------------------------
  Zero point energy            =        1.649481 eV
  Entropy                      =        0.000002 eV/K
                               =        0.212859 J/(mol.K)
  Helmholtz free-energy        =      -57.267707 eV
                               =    -5525.457810 kJmol-1
  Free energy (equipartition)  =      -58.429943 eV
  - T*S       (equipartition)  =        0.321752 eV
  Uvib        (equipartition)  =        0.165453 eV
  Mean kinetic energy          =        0.824809 eV
  Heat capacity - const volume =        0.000007 eV/K
                               =        0.682990 J/(mol.K)
--------------------------------------------------------------------------------
  Phonon properties (per mole of unit cells): Temperature =     90.000 K
--------------------------------------------------------------------------------
  Zero point energy            =        1.649481 eV
  Entropy                      =        0.000003 eV/K
                               =        0.310334 J/(mol.K)
  Helmholtz free-energy        =      -57.267734 eV
                               =    -5525.460405 kJmol-1
  Free energy (equipartition)  =      -58.390966 eV
  - T*S       (equipartition)  =        0.340047 eV
  Uvib        (equipartition)  =        0.186134 eV
  Mean kinetic energy          =        0.824852 eV
  Heat capacity - const volume =        0.000010 eV/K
                               =        0.992168 J/(mol.K)
--------------------------------------------------------------------------------
  Phonon properties (per mole of unit cells): Temperature =    100.000 K
--------------------------------------------------------------------------------
  Zero point energy            =        1.649481 eV
  Entropy                      =        0.000005 eV/K
                               =        0.434736 J/(mol.K)
  Helmholtz free-energy        =      -57.267772 eV
                               =    -5525.464106 kJmol-1
  Free energy (equipartition)  =      -58.354292 eV
  - T*S       (equipartition)  =        0.356040 eV
  Uvib        (equipartition)  =        0.206816 eV
  Mean kinetic energy          =        0.824913 eV
  Heat capacity - const volume =        0.000014 eV/K
                               =        1.392904 J/(mol.K)
--------------------------------------------------------------------------------
  Phonon properties (per mole of unit cells): Temperature =    110.000 K
--------------------------------------------------------------------------------
  Zero point energy            =        1.649481 eV
  Entropy                      =        0.000006 eV/K
                               =        0.590409 J/(mol.K)
  Helmholtz free-energy        =      -57.267825 eV
                               =    -5525.469204 kJmol-1
  Free energy (equipartition)  =      -58.319689 eV
  - T*S       (equipartition)  =        0.369961 eV
  Uvib        (equipartition)  =        0.227498 eV
  Mean kinetic energy          =        0.824998 eV
  Heat capacity - const volume =        0.000020 eV/K
                               =        1.901004 J/(mol.K)
--------------------------------------------------------------------------------
  Phonon properties (per mole of unit cells): Temperature =    120.000 K
--------------------------------------------------------------------------------
  Zero point energy            =        1.649481 eV
  Entropy                      =        0.000008 eV/K
                               =        0.781915 J/(mol.K)
  Helmholtz free-energy        =      -57.267896 eV
                               =    -5525.476034 kJmol-1
  Free energy (equipartition)  =      -58.286969 eV
  - T*S       (equipartition)  =        0.382000 eV
  Uvib        (equipartition)  =        0.248179 eV
  Mean kinetic energy          =        0.825112 eV
  Heat capacity - const volume =        0.000026 eV/K
                               =        2.531576 J/(mol.K)
--------------------------------------------------------------------------------
  Phonon properties (per mole of unit cells): Temperature =    130.000 K
--------------------------------------------------------------------------------
  Zero point energy            =        1.649481 eV
  Entropy                      =        0.000011 eV/K
                               =        1.013866 J/(mol.K)
  Helmholtz free-energy        =      -57.267988 eV
                               =    -5525.484977 kJmol-1
  Free energy (equipartition)  =      -58.255975 eV
  - T*S       (equipartition)  =        0.392313 eV
  Uvib        (equipartition)  =        0.268861 eV
  Mean kinetic energy          =        0.825263 eV
  Heat capacity - const volume =        0.000034 eV/K
                               =        3.297931 J/(mol.K)
--------------------------------------------------------------------------------
  Phonon properties (per mole of unit cells): Temperature =    140.000 K
--------------------------------------------------------------------------------
  Zero point energy            =        1.649481 eV
  Entropy                      =        0.000013 eV/K
                               =        1.290745 J/(mol.K)
  Helmholtz free-energy        =      -57.268107 eV
                               =    -5525.496461 kJmol-1
  Free energy (equipartition)  =      -58.226572 eV
  - T*S       (equipartition)  =        0.401033 eV
  Uvib        (equipartition)  =        0.289542 eV
  Mean kinetic energy          =        0.825457 eV
  Heat capacity - const volume =        0.000044 eV/K
                               =        4.210828 J/(mol.K)
--------------------------------------------------------------------------------
  Phonon properties (per mole of unit cells): Temperature =    150.000 K
--------------------------------------------------------------------------------
  Zero point energy            =        1.649481 eV
  Entropy                      =        0.000017 eV/K
                               =        1.616752 J/(mol.K)
  Helmholtz free-energy        =      -57.268258 eV
                               =    -5525.510956 kJmol-1
  Free energy (equipartition)  =      -58.198649 eV
  - T*S       (equipartition)  =        0.408275 eV
  Uvib        (equipartition)  =        0.310224 eV
  Mean kinetic energy          =        0.825702 eV
  Heat capacity - const volume =        0.000055 eV/K
                               =        5.278094 J/(mol.K)
--------------------------------------------------------------------------------
  Phonon properties (per mole of unit cells): Temperature =    160.000 K
--------------------------------------------------------------------------------
  Zero point energy            =        1.649481 eV
  Entropy                      =        0.000021 eV/K
                               =        1.995679 J/(mol.K)
  Helmholtz free-energy        =      -57.268444 eV
                               =    -5525.528973 kJmol-1
  Free energy (equipartition)  =      -58.172105 eV
  - T*S       (equipartition)  =        0.414137 eV
  Uvib        (equipartition)  =        0.330906 eV
  Mean kinetic energy          =        0.826007 eV
  Heat capacity - const volume =        0.000067 eV/K
                               =        6.504548 J/(mol.K)
--------------------------------------------------------------------------------
  Phonon properties (per mole of unit cells): Temperature =    170.000 K
--------------------------------------------------------------------------------
  Zero point energy            =        1.649481 eV
  Entropy                      =        0.000025 eV/K
                               =        2.430836 J/(mol.K)
  Helmholtz free-energy        =      -57.268673 eV
                               =    -5525.551057 kJmol-1
  Free energy (equipartition)  =      -58.146855 eV
  - T*S       (equipartition)  =        0.418706 eV
  Uvib        (equipartition)  =        0.351587 eV
  Mean kinetic energy          =        0.826379 eV
  Heat capacity - const volume =        0.000082 eV/K
                               =        7.892136 J/(mol.K)
--------------------------------------------------------------------------------
  Phonon properties (per mole of unit cells): Temperature =    180.000 K
--------------------------------------------------------------------------------
  Zero point energy            =        1.649481 eV
  Entropy                      =        0.000030 eV/K
                               =        2.925000 J/(mol.K)
  Helmholtz free-energy        =      -57.268950 eV
                               =    -5525.577786 kJmol-1
  Free energy (equipartition)  =      -58.122822 eV
  - T*S       (equipartition)  =        0.422057 eV
  Uvib        (equipartition)  =        0.372269 eV
  Mean kinetic energy          =        0.826827 eV
  Heat capacity - const volume =        0.000098 eV/K
                               =        9.440172 J/(mol.K)
--------------------------------------------------------------------------------
  Phonon properties (per mole of unit cells): Temperature =    190.000 K
--------------------------------------------------------------------------------
  Zero point energy            =        1.649481 eV
  Entropy                      =        0.000036 eV/K
                               =        3.480393 J/(mol.K)
  Helmholtz free-energy        =      -57.269282 eV
                               =    -5525.609761 kJmol-1
  Free energy (equipartition)  =      -58.099938 eV
  - T*S       (equipartition)  =        0.424259 eV
  Uvib        (equipartition)  =        0.392951 eV
  Mean kinetic energy          =        0.827360 eV
  Heat capacity - const volume =        0.000116 eV/K
                               =       11.145634 J/(mol.K)
--------------------------------------------------------------------------------
  Phonon properties (per mole of unit cells): Temperature =    200.000 K
--------------------------------------------------------------------------------
  Zero point energy            =        1.649481 eV
  Entropy                      =        0.000042 eV/K
                               =        4.098692 J/(mol.K)
  Helmholtz free-energy        =      -57.269674 eV
                               =    -5525.647604 kJmol-1
  Free energy (equipartition)  =      -58.078144 eV
  - T*S       (equipartition)  =        0.425372 eV
  Uvib        (equipartition)  =        0.413632 eV
  Mean kinetic energy          =        0.827985 eV
  Heat capacity - const volume =        0.000135 eV/K
                               =       13.003465 J/(mol.K)
--------------------------------------------------------------------------------
  Phonon properties (per mole of unit cells): Temperature =    210.000 K
--------------------------------------------------------------------------------
  Zero point energy            =        1.649481 eV
  Entropy                      =        0.000050 eV/K
                               =        4.781033 J/(mol.K)
  Helmholtz free-energy        =      -57.270134 eV
                               =    -5525.691949 kJmol-1
  Free energy (equipartition)  =      -58.057384 eV
  - T*S       (equipartition)  =        0.425450 eV
  Uvib        (equipartition)  =        0.434314 eV
  Mean kinetic energy          =        0.828710 eV
  Heat capacity - const volume =        0.000156 eV/K
                               =       15.006876 J/(mol.K)
--------------------------------------------------------------------------------
  Phonon properties (per mole of unit cells): Temperature =    220.000 K
--------------------------------------------------------------------------------
  Zero point energy            =        1.649481 eV
  Entropy                      =        0.000057 eV/K
                               =        5.528046 J/(mol.K)
  Helmholtz free-energy        =      -57.270667 eV
                               =    -5525.743440 kJmol-1
  Free energy (equipartition)  =      -58.037609 eV
  - T*S       (equipartition)  =        0.424544 eV
  Uvib        (equipartition)  =        0.454995 eV
  Mean kinetic energy          =        0.829543 eV
  Heat capacity - const volume =        0.000178 eV/K
                               =       17.147636 J/(mol.K)
--------------------------------------------------------------------------------
  Phonon properties (per mole of unit cells): Temperature =    230.000 K
--------------------------------------------------------------------------------
  Zero point energy            =        1.649481 eV
  Entropy                      =        0.000066 eV/K
                               =        6.339883 J/(mol.K)
  Helmholtz free-energy        =      -57.271282 eV
                               =    -5525.802726 kJmol-1
  Free energy (equipartition)  =      -58.018775 eV
  - T*S       (equipartition)  =        0.422696 eV
  Uvib        (equipartition)  =        0.475677 eV
  Mean kinetic energy          =        0.830490 eV
  Heat capacity - const volume =        0.000201 eV/K
                               =       19.416347 J/(mol.K)
--------------------------------------------------------------------------------
  Phonon properties (per mole of unit cells): Temperature =    240.000 K
--------------------------------------------------------------------------------
  Zero point energy            =        1.649481 eV
  Entropy                      =        0.000075 eV/K
                               =        7.216259 J/(mol.K)
  Helmholtz free-energy        =      -57.271984 eV
                               =    -5525.870453 kJmol-1
  Free energy (equipartition)  =      -58.000840 eV
  - T*S       (equipartition)  =        0.419950 eV
  Uvib        (equipartition)  =        0.496359 eV
  Mean kinetic energy          =        0.831557 eV
  Heat capacity - const volume =        0.000226 eV/K
                               =       21.802717 J/(mol.K)
--------------------------------------------------------------------------------
  Phonon properties (per mole of unit cells): Temperature =    250.000 K
--------------------------------------------------------------------------------
  Zero point energy            =        1.649481 eV
  Entropy                      =        0.000085 eV/K
                               =        8.156485 J/(mol.K)
  Helmholtz free-energy        =      -57.272780 eV
                               =    -5525.947264 kJmol-1
  Free energy (equipartition)  =      -57.983767 eV
  - T*S       (equipartition)  =        0.416341 eV
  Uvib        (equipartition)  =        0.517040 eV
  Mean kinetic energy          =        0.832751 eV
  Heat capacity - const volume =        0.000252 eV/K
                               =       24.295802 J/(mol.K)
--------------------------------------------------------------------------------
  Phonon properties (per mole of unit cells): Temperature =    260.000 K
--------------------------------------------------------------------------------
  Zero point energy            =        1.649481 eV
  Entropy                      =        0.000095 eV/K
                               =        9.159520 J/(mol.K)
  Helmholtz free-energy        =      -57.273677 eV
                               =    -5526.033792 kJmol-1
  Free energy (equipartition)  =      -57.967521 eV
  - T*S       (equipartition)  =        0.411905 eV
  Uvib        (equipartition)  =        0.537722 eV
  Mean kinetic energy          =        0.834077 eV
  Heat capacity - const volume =        0.000279 eV/K
                               =       26.884247 J/(mol.K)
--------------------------------------------------------------------------------
  Phonon properties (per mole of unit cells): Temperature =    270.000 K
--------------------------------------------------------------------------------
  Zero point energy            =        1.649481 eV
  Entropy                      =        0.000106 eV/K
                               =       10.224003 J/(mol.K)
  Helmholtz free-energy        =      -57.274680 eV
                               =    -5526.130659 kJmol-1
  Free energy (equipartition)  =      -57.952072 eV
  - T*S       (equipartition)  =        0.406673 eV
  Uvib        (equipartition)  =        0.558403 eV
  Mean kinetic energy          =        0.835539 eV
  Heat capacity - const volume =        0.000306 eV/K
                               =       29.556496 J/(mol.K)
--------------------------------------------------------------------------------
  Phonon properties (per mole of unit cells): Temperature =    280.000 K
--------------------------------------------------------------------------------
  Zero point energy            =        1.649481 eV
  Entropy                      =        0.000118 eV/K
                               =       11.348305 J/(mol.K)
  Helmholtz free-energy        =      -57.275798 eV
                               =    -5526.238471 kJmol-1
  Free energy (equipartition)  =      -57.937388 eV
  - T*S       (equipartition)  =        0.400675 eV
  Uvib        (equipartition)  =        0.579085 eV
  Mean kinetic energy          =        0.837142 eV
  Heat capacity - const volume =        0.000335 eV/K
                               =       32.300984 J/(mol.K)
--------------------------------------------------------------------------------
  Phonon properties (per mole of unit cells): Temperature =    290.000 K
--------------------------------------------------------------------------------
  Zero point energy            =        1.649481 eV
  Entropy                      =        0.000130 eV/K
                               =       12.530561 J/(mol.K)
  Helmholtz free-energy        =      -57.277035 eV
                               =    -5526.357818 kJmol-1
  Free energy (equipartition)  =      -57.923443 eV
  - T*S       (equipartition)  =        0.393938 eV
  Uvib        (equipartition)  =        0.599767 eV
  Mean kinetic energy          =        0.838888 eV
  Heat capacity - const volume =        0.000364 eV/K
                               =       35.106303 J/(mol.K)
--------------------------------------------------------------------------------

  Time to end of properties =       1.3067 seconds


  Peak dynamic memory used =       0.67 MB 


  Timing analysis for GULP :

--------------------------------------------------------------------------------
  Task / Subroutine                                          Time (Seconds)
--------------------------------------------------------------------------------
  Calculation of real space energy and derivatives                0.0005
  Calculation of Brenner energy and derivatives                   1.2674
  Calculation of phonons                                          1.2967
  Disk read/write operations to scratch files                     0.0054
--------------------------------------------------------------------------------
  Total CPU time                                                  1.3067
--------------------------------------------------------------------------------


  Job Finished at 18:11.02 14th August     2020                               

