********************************************************************************
*                       GENERAL UTILITY LATTICE PROGRAM                        *
*                                 Julian Gale                                  *
*                       Curtin Institute for Computation                       *
*                    School of Molecular and Life Sciences                     *
*                    Curtin University, Western Australia                      *
********************************************************************************
* Version = 5.2.0 * Last modified =  17th December 2019                        *
********************************************************************************
*  single       - perform a single point run                                   *
*  property     - calculate properties for final geometry                      *
*  phonon       - calculate phonons for final geometry                         *
********************************************************************************
* ASE calculation                                                              *
********************************************************************************


  Job Started  at 09:36.42 31st July       2020                               

  Number of CPUs =     1


  Total number of configurations input =      1

********************************************************************************
*  Input for Configuration =   1                                               *
********************************************************************************

  Formula = C8                                                          

  Number of irreducible atoms/shells =       8


  Total number atoms/shells =       8

  Dimensionality = 3               :  Bulk   



  Cartesian lattice vectors (Angstroms) :

        3.596600    0.000000    0.000000
        0.000000    3.596600    0.000000
        0.000000    0.000000    3.596600

  Cell parameters (Angstroms/Degrees):

  a =       3.5966    alpha =  90.0000
  b =       3.5966    beta  =  90.0000
  c =       3.5966    gamma =  90.0000

  Initial cell volume =          46.523933 Angs**3

  Shrinking factors =      8     8     8

  Temperature of configuration =   10.0     K 

  Pressure of configuration =         0.000 GPa 

  Fractional coordinates of asymmetric unit :

--------------------------------------------------------------------------------
   No.  Atomic       x           y          z         Charge      Occupancy
        Label      (Frac)      (Frac)     (Frac)        (e)         (Frac)  
--------------------------------------------------------------------------------
      1 C     c    0.000000    0.000000    0.000000     0.00000    1.000000    
      2 C     c    0.000000    0.500000    0.500000     0.00000    1.000000    
      3 C     c    0.500000    0.500000    0.000000     0.00000    1.000000    
      4 C     c    0.500000    0.000000    0.500000     0.00000    1.000000    
      5 C     c    0.750000    0.250000    0.750000     0.00000    1.000000    
      6 C     c    0.250000    0.250000    0.250000     0.00000    1.000000    
      7 C     c    0.250000    0.750000    0.750000     0.00000    1.000000    
      8 C     c    0.750000    0.750000    0.250000     0.00000    1.000000    
--------------------------------------------------------------------------------


  Brillouin zone sampling points :

--------------------------------------------------------------------------------
  Point number          x          y          z            Weight
--------------------------------------------------------------------------------
        1           0.062500   0.062500   0.062500     0.00390625
        2           0.062500   0.062500   0.187500     0.00390625
        3           0.062500   0.062500   0.312500     0.00390625
        4           0.062500   0.062500   0.437500     0.00390625
        5           0.062500   0.062500   0.562500     0.00390625
        6           0.062500   0.062500   0.687500     0.00390625
        7           0.062500   0.062500   0.812500     0.00390625
        8           0.062500   0.062500   0.937500     0.00390625
        9           0.062500   0.187500   0.062500     0.00390625
       10           0.062500   0.187500   0.187500     0.00390625
       11           0.062500   0.187500   0.312500     0.00390625
       12           0.062500   0.187500   0.437500     0.00390625
       13           0.062500   0.187500   0.562500     0.00390625
       14           0.062500   0.187500   0.687500     0.00390625
       15           0.062500   0.187500   0.812500     0.00390625
       16           0.062500   0.187500   0.937500     0.00390625
       17           0.062500   0.312500   0.062500     0.00390625
       18           0.062500   0.312500   0.187500     0.00390625
       19           0.062500   0.312500   0.312500     0.00390625
       20           0.062500   0.312500   0.437500     0.00390625
       21           0.062500   0.312500   0.562500     0.00390625
       22           0.062500   0.312500   0.687500     0.00390625
       23           0.062500   0.312500   0.812500     0.00390625
       24           0.062500   0.312500   0.937500     0.00390625
       25           0.062500   0.437500   0.062500     0.00390625
       26           0.062500   0.437500   0.187500     0.00390625
       27           0.062500   0.437500   0.312500     0.00390625
       28           0.062500   0.437500   0.437500     0.00390625
       29           0.062500   0.437500   0.562500     0.00390625
       30           0.062500   0.437500   0.687500     0.00390625
       31           0.062500   0.437500   0.812500     0.00390625
       32           0.062500   0.437500   0.937500     0.00390625
       33           0.062500   0.562500   0.062500     0.00390625
       34           0.062500   0.562500   0.187500     0.00390625
       35           0.062500   0.562500   0.312500     0.00390625
       36           0.062500   0.562500   0.437500     0.00390625
       37           0.062500   0.562500   0.562500     0.00390625
       38           0.062500   0.562500   0.687500     0.00390625
       39           0.062500   0.562500   0.812500     0.00390625
       40           0.062500   0.562500   0.937500     0.00390625
       41           0.062500   0.687500   0.062500     0.00390625
       42           0.062500   0.687500   0.187500     0.00390625
       43           0.062500   0.687500   0.312500     0.00390625
       44           0.062500   0.687500   0.437500     0.00390625
       45           0.062500   0.687500   0.562500     0.00390625
       46           0.062500   0.687500   0.687500     0.00390625
       47           0.062500   0.687500   0.812500     0.00390625
       48           0.062500   0.687500   0.937500     0.00390625
       49           0.062500   0.812500   0.062500     0.00390625
       50           0.062500   0.812500   0.187500     0.00390625
       51           0.062500   0.812500   0.312500     0.00390625
       52           0.062500   0.812500   0.437500     0.00390625
       53           0.062500   0.812500   0.562500     0.00390625
       54           0.062500   0.812500   0.687500     0.00390625
       55           0.062500   0.812500   0.812500     0.00390625
       56           0.062500   0.812500   0.937500     0.00390625
       57           0.062500   0.937500   0.062500     0.00390625
       58           0.062500   0.937500   0.187500     0.00390625
       59           0.062500   0.937500   0.312500     0.00390625
       60           0.062500   0.937500   0.437500     0.00390625
       61           0.062500   0.937500   0.562500     0.00390625
       62           0.062500   0.937500   0.687500     0.00390625
       63           0.062500   0.937500   0.812500     0.00390625
       64           0.062500   0.937500   0.937500     0.00390625
       65           0.187500   0.062500   0.062500     0.00390625
       66           0.187500   0.062500   0.187500     0.00390625
       67           0.187500   0.062500   0.312500     0.00390625
       68           0.187500   0.062500   0.437500     0.00390625
       69           0.187500   0.062500   0.562500     0.00390625
       70           0.187500   0.062500   0.687500     0.00390625
       71           0.187500   0.062500   0.812500     0.00390625
       72           0.187500   0.062500   0.937500     0.00390625
       73           0.187500   0.187500   0.062500     0.00390625
       74           0.187500   0.187500   0.187500     0.00390625
       75           0.187500   0.187500   0.312500     0.00390625
       76           0.187500   0.187500   0.437500     0.00390625
       77           0.187500   0.187500   0.562500     0.00390625
       78           0.187500   0.187500   0.687500     0.00390625
       79           0.187500   0.187500   0.812500     0.00390625
       80           0.187500   0.187500   0.937500     0.00390625
       81           0.187500   0.312500   0.062500     0.00390625
       82           0.187500   0.312500   0.187500     0.00390625
       83           0.187500   0.312500   0.312500     0.00390625
       84           0.187500   0.312500   0.437500     0.00390625
       85           0.187500   0.312500   0.562500     0.00390625
       86           0.187500   0.312500   0.687500     0.00390625
       87           0.187500   0.312500   0.812500     0.00390625
       88           0.187500   0.312500   0.937500     0.00390625
       89           0.187500   0.437500   0.062500     0.00390625
       90           0.187500   0.437500   0.187500     0.00390625
       91           0.187500   0.437500   0.312500     0.00390625
       92           0.187500   0.437500   0.437500     0.00390625
       93           0.187500   0.437500   0.562500     0.00390625
       94           0.187500   0.437500   0.687500     0.00390625
       95           0.187500   0.437500   0.812500     0.00390625
       96           0.187500   0.437500   0.937500     0.00390625
       97           0.187500   0.562500   0.062500     0.00390625
       98           0.187500   0.562500   0.187500     0.00390625
       99           0.187500   0.562500   0.312500     0.00390625
      100           0.187500   0.562500   0.437500     0.00390625
      101           0.187500   0.562500   0.562500     0.00390625
      102           0.187500   0.562500   0.687500     0.00390625
      103           0.187500   0.562500   0.812500     0.00390625
      104           0.187500   0.562500   0.937500     0.00390625
      105           0.187500   0.687500   0.062500     0.00390625
      106           0.187500   0.687500   0.187500     0.00390625
      107           0.187500   0.687500   0.312500     0.00390625
      108           0.187500   0.687500   0.437500     0.00390625
      109           0.187500   0.687500   0.562500     0.00390625
      110           0.187500   0.687500   0.687500     0.00390625
      111           0.187500   0.687500   0.812500     0.00390625
      112           0.187500   0.687500   0.937500     0.00390625
      113           0.187500   0.812500   0.062500     0.00390625
      114           0.187500   0.812500   0.187500     0.00390625
      115           0.187500   0.812500   0.312500     0.00390625
      116           0.187500   0.812500   0.437500     0.00390625
      117           0.187500   0.812500   0.562500     0.00390625
      118           0.187500   0.812500   0.687500     0.00390625
      119           0.187500   0.812500   0.812500     0.00390625
      120           0.187500   0.812500   0.937500     0.00390625
      121           0.187500   0.937500   0.062500     0.00390625
      122           0.187500   0.937500   0.187500     0.00390625
      123           0.187500   0.937500   0.312500     0.00390625
      124           0.187500   0.937500   0.437500     0.00390625
      125           0.187500   0.937500   0.562500     0.00390625
      126           0.187500   0.937500   0.687500     0.00390625
      127           0.187500   0.937500   0.812500     0.00390625
      128           0.187500   0.937500   0.937500     0.00390625
      129           0.312500   0.062500   0.062500     0.00390625
      130           0.312500   0.062500   0.187500     0.00390625
      131           0.312500   0.062500   0.312500     0.00390625
      132           0.312500   0.062500   0.437500     0.00390625
      133           0.312500   0.062500   0.562500     0.00390625
      134           0.312500   0.062500   0.687500     0.00390625
      135           0.312500   0.062500   0.812500     0.00390625
      136           0.312500   0.062500   0.937500     0.00390625
      137           0.312500   0.187500   0.062500     0.00390625
      138           0.312500   0.187500   0.187500     0.00390625
      139           0.312500   0.187500   0.312500     0.00390625
      140           0.312500   0.187500   0.437500     0.00390625
      141           0.312500   0.187500   0.562500     0.00390625
      142           0.312500   0.187500   0.687500     0.00390625
      143           0.312500   0.187500   0.812500     0.00390625
      144           0.312500   0.187500   0.937500     0.00390625
      145           0.312500   0.312500   0.062500     0.00390625
      146           0.312500   0.312500   0.187500     0.00390625
      147           0.312500   0.312500   0.312500     0.00390625
      148           0.312500   0.312500   0.437500     0.00390625
      149           0.312500   0.312500   0.562500     0.00390625
      150           0.312500   0.312500   0.687500     0.00390625
      151           0.312500   0.312500   0.812500     0.00390625
      152           0.312500   0.312500   0.937500     0.00390625
      153           0.312500   0.437500   0.062500     0.00390625
      154           0.312500   0.437500   0.187500     0.00390625
      155           0.312500   0.437500   0.312500     0.00390625
      156           0.312500   0.437500   0.437500     0.00390625
      157           0.312500   0.437500   0.562500     0.00390625
      158           0.312500   0.437500   0.687500     0.00390625
      159           0.312500   0.437500   0.812500     0.00390625
      160           0.312500   0.437500   0.937500     0.00390625
      161           0.312500   0.562500   0.062500     0.00390625
      162           0.312500   0.562500   0.187500     0.00390625
      163           0.312500   0.562500   0.312500     0.00390625
      164           0.312500   0.562500   0.437500     0.00390625
      165           0.312500   0.562500   0.562500     0.00390625
      166           0.312500   0.562500   0.687500     0.00390625
      167           0.312500   0.562500   0.812500     0.00390625
      168           0.312500   0.562500   0.937500     0.00390625
      169           0.312500   0.687500   0.062500     0.00390625
      170           0.312500   0.687500   0.187500     0.00390625
      171           0.312500   0.687500   0.312500     0.00390625
      172           0.312500   0.687500   0.437500     0.00390625
      173           0.312500   0.687500   0.562500     0.00390625
      174           0.312500   0.687500   0.687500     0.00390625
      175           0.312500   0.687500   0.812500     0.00390625
      176           0.312500   0.687500   0.937500     0.00390625
      177           0.312500   0.812500   0.062500     0.00390625
      178           0.312500   0.812500   0.187500     0.00390625
      179           0.312500   0.812500   0.312500     0.00390625
      180           0.312500   0.812500   0.437500     0.00390625
      181           0.312500   0.812500   0.562500     0.00390625
      182           0.312500   0.812500   0.687500     0.00390625
      183           0.312500   0.812500   0.812500     0.00390625
      184           0.312500   0.812500   0.937500     0.00390625
      185           0.312500   0.937500   0.062500     0.00390625
      186           0.312500   0.937500   0.187500     0.00390625
      187           0.312500   0.937500   0.312500     0.00390625
      188           0.312500   0.937500   0.437500     0.00390625
      189           0.312500   0.937500   0.562500     0.00390625
      190           0.312500   0.937500   0.687500     0.00390625
      191           0.312500   0.937500   0.812500     0.00390625
      192           0.312500   0.937500   0.937500     0.00390625
      193           0.437500   0.062500   0.062500     0.00390625
      194           0.437500   0.062500   0.187500     0.00390625
      195           0.437500   0.062500   0.312500     0.00390625
      196           0.437500   0.062500   0.437500     0.00390625
      197           0.437500   0.062500   0.562500     0.00390625
      198           0.437500   0.062500   0.687500     0.00390625
      199           0.437500   0.062500   0.812500     0.00390625
      200           0.437500   0.062500   0.937500     0.00390625
      201           0.437500   0.187500   0.062500     0.00390625
      202           0.437500   0.187500   0.187500     0.00390625
      203           0.437500   0.187500   0.312500     0.00390625
      204           0.437500   0.187500   0.437500     0.00390625
      205           0.437500   0.187500   0.562500     0.00390625
      206           0.437500   0.187500   0.687500     0.00390625
      207           0.437500   0.187500   0.812500     0.00390625
      208           0.437500   0.187500   0.937500     0.00390625
      209           0.437500   0.312500   0.062500     0.00390625
      210           0.437500   0.312500   0.187500     0.00390625
      211           0.437500   0.312500   0.312500     0.00390625
      212           0.437500   0.312500   0.437500     0.00390625
      213           0.437500   0.312500   0.562500     0.00390625
      214           0.437500   0.312500   0.687500     0.00390625
      215           0.437500   0.312500   0.812500     0.00390625
      216           0.437500   0.312500   0.937500     0.00390625
      217           0.437500   0.437500   0.062500     0.00390625
      218           0.437500   0.437500   0.187500     0.00390625
      219           0.437500   0.437500   0.312500     0.00390625
      220           0.437500   0.437500   0.437500     0.00390625
      221           0.437500   0.437500   0.562500     0.00390625
      222           0.437500   0.437500   0.687500     0.00390625
      223           0.437500   0.437500   0.812500     0.00390625
      224           0.437500   0.437500   0.937500     0.00390625
      225           0.437500   0.562500   0.062500     0.00390625
      226           0.437500   0.562500   0.187500     0.00390625
      227           0.437500   0.562500   0.312500     0.00390625
      228           0.437500   0.562500   0.437500     0.00390625
      229           0.437500   0.562500   0.562500     0.00390625
      230           0.437500   0.562500   0.687500     0.00390625
      231           0.437500   0.562500   0.812500     0.00390625
      232           0.437500   0.562500   0.937500     0.00390625
      233           0.437500   0.687500   0.062500     0.00390625
      234           0.437500   0.687500   0.187500     0.00390625
      235           0.437500   0.687500   0.312500     0.00390625
      236           0.437500   0.687500   0.437500     0.00390625
      237           0.437500   0.687500   0.562500     0.00390625
      238           0.437500   0.687500   0.687500     0.00390625
      239           0.437500   0.687500   0.812500     0.00390625
      240           0.437500   0.687500   0.937500     0.00390625
      241           0.437500   0.812500   0.062500     0.00390625
      242           0.437500   0.812500   0.187500     0.00390625
      243           0.437500   0.812500   0.312500     0.00390625
      244           0.437500   0.812500   0.437500     0.00390625
      245           0.437500   0.812500   0.562500     0.00390625
      246           0.437500   0.812500   0.687500     0.00390625
      247           0.437500   0.812500   0.812500     0.00390625
      248           0.437500   0.812500   0.937500     0.00390625
      249           0.437500   0.937500   0.062500     0.00390625
      250           0.437500   0.937500   0.187500     0.00390625
      251           0.437500   0.937500   0.312500     0.00390625
      252           0.437500   0.937500   0.437500     0.00390625
      253           0.437500   0.937500   0.562500     0.00390625
      254           0.437500   0.937500   0.687500     0.00390625
      255           0.437500   0.937500   0.812500     0.00390625
      256           0.437500   0.937500   0.937500     0.00390625
--------------------------------------------------------------------------------


********************************************************************************
*  General input information                                                   *
********************************************************************************

  Species output for all configurations : 

--------------------------------------------------------------------------------
  Species    Type    Atomic    Atomic    Charge       Radii (Angs)     Library
                     Number     Mass       (e)     Cova   Ionic  VDW   Symbol
--------------------------------------------------------------------------------
    C        Core        6      12.01   0.000000   0.770  0.000  1.530          
--------------------------------------------------------------------------------


  Lattice summation method               =    Ewald          (3-D)
                                         =    Parry          (2-D)
                                         =    Saunders et al (1-D)
  Accuracy factor for lattice sums       =   12.000


  Analytic derivatives to be used

  Time limit = Infinity

  Maximum range for interatomic potentials =    100000.000000 Angstroms

  Brenner et al 2002 potential to be used with explicit splines for P


********************************************************************************
*  Output for configuration   1                                                *
********************************************************************************


  Components of energy : 

--------------------------------------------------------------------------------
  Interatomic potentials     =           0.00000000 eV    
  Brenner potentials         =         -58.91708810 eV    
  Monopole - monopole (real) =           0.00000000 eV    
  Monopole - monopole (recip)=           0.00000000 eV    
  Monopole - monopole (total)=           0.00000000 eV    
--------------------------------------------------------------------------------
  Total lattice energy       =         -58.91708810 eV    
--------------------------------------------------------------------------------
  Total lattice energy       =           -5684.5984 kJ/(mole unit cells)
--------------------------------------------------------------------------------


  Elastic Constant Matrix: (Units=GPa)

-------------------------------------------------------------------------------
  Indices      1         2         3         4         5         6    
-------------------------------------------------------------------------------
       1   1005.8427   99.4597   99.4597    0.0000    0.0000    0.0000
       2     99.4597 1005.8427   99.4597    0.0000    0.0000    0.0000
       3     99.4597   99.4597 1005.8427    0.0000    0.0000    0.0000
       4      0.0000    0.0000    0.0000  669.5820   -0.0000   -0.0000
       5      0.0000    0.0000    0.0000   -0.0000  669.5820   -0.0000
       6      0.0000    0.0000    0.0000   -0.0000   -0.0000  669.5820
-------------------------------------------------------------------------------


  Elastic Compliance Matrix: (Units=1/GPa)

-------------------------------------------------------------------------------
  Indices      1         2         3         4         5         6    
-------------------------------------------------------------------------------
       1    0.001012 -0.000091 -0.000091 -0.000000 -0.000000 -0.000000
       2   -0.000091  0.001012 -0.000091 -0.000000 -0.000000 -0.000000
       3   -0.000091 -0.000091  0.001012 -0.000000 -0.000000 -0.000000
       4   -0.000000 -0.000000 -0.000000  0.001493  0.000000  0.000000
       5   -0.000000 -0.000000 -0.000000  0.000000  0.001493  0.000000
       6   -0.000000 -0.000000 -0.000000  0.000000  0.000000  0.001493
-------------------------------------------------------------------------------

  Mechanical properties :

-------------------------------------------------------------------------------
  Convention :                    Reuss         Voigt         Hill
-------------------------------------------------------------------------------
  Bulk  Modulus (GPa)     =     401.58733     401.58733     401.58733
  Shear Modulus (GPa)     =     562.20502     583.02578     572.61540
-------------------------------------------------------------------------------
  Velocity S-wave (km/s)  =      12.80386      13.03880      12.92187
  Velocity P-wave (km/s)  =      18.32179      18.54139      18.43192
-------------------------------------------------------------------------------
  Compressibility (1/GPa) =    0.00249012
-------------------------------------------------------------------------------
  Stress axis :                     x             y             z
-------------------------------------------------------------------------------
  Youngs Moduli (GPa)     =     987.94311     987.94311     987.94311
-------------------------------------------------------------------------------
  Poissons Ratio (x)      =                     0.08998       0.08998
  Poissons Ratio (y)      =       0.08998                     0.08998
  Poissons Ratio (z)      =       0.08998       0.08998
-------------------------------------------------------------------------------


  Piezoelectric Strain Matrix: (Units=C/m**2)

-------------------------------------------------------------------------------
  Indices      1         2         3         4         5         6    
-------------------------------------------------------------------------------
       x    -0.00000  -0.00000  -0.00000  -0.00000  -0.00000  -0.00000
       y    -0.00000  -0.00000  -0.00000  -0.00000  -0.00000  -0.00000
       z    -0.00000  -0.00000  -0.00000  -0.00000  -0.00000  -0.00000
-------------------------------------------------------------------------------


  Piezoelectric Stress Matrix: (Units=10**-11 C/N)

-------------------------------------------------------------------------------
  Indices      1         2         3         4         5         6    
-------------------------------------------------------------------------------
       x     0.00000   0.00000   0.00000   0.00000   0.00000   0.00000
       y     0.00000   0.00000   0.00000   0.00000   0.00000   0.00000
       z     0.00000   0.00000   0.00000   0.00000   0.00000   0.00000
-------------------------------------------------------------------------------


  Static dielectric constant tensor : 

-------------------------------------------------------------------------------
              x         y         z
-------------------------------------------------------------------------------
       x     1.00000   0.00000   0.00000
       y     0.00000   1.00000   0.00000
       z     0.00000   0.00000   1.00000
--------------------------------------------------------------------------------

  Static refractive indices : 

-------------------------------------------------------------------------------
    1 =    1.00000      2 =    1.00000      3 =    1.00000
-------------------------------------------------------------------------------


  Phonon Calculation : 

  Number of k points for this configuration =      256

--------------------------------------------------------------------------------
  K point      1 =   0.062500  0.062500  0.062500  Weight =    0.004
--------------------------------------------------------------------------------

  Frequencies (cm-1) [NB: Negative implies an imaginary mode]:

  123.86  123.86  193.41 1030.94 1030.94 1030.94 1042.17 1042.17 1042.17
 1173.05 1173.05 1173.05 1211.35 1211.35 1211.35 1241.10 1241.10 1241.10
 1307.23 1307.23 1307.23 1514.94 1514.94 1519.37


--------------------------------------------------------------------------------
  K point      2 =   0.062500  0.062500  0.187500  Weight =    0.004
--------------------------------------------------------------------------------

  Frequencies (cm-1) [NB: Negative implies an imaginary mode]:

  242.73  257.93  347.33  941.81  949.51 1023.23 1023.23 1054.60 1054.60
 1095.46 1129.50 1129.50 1199.71 1199.71 1272.78 1272.78 1275.33 1282.69
 1321.88 1321.88 1372.64 1502.89 1503.52 1516.04


--------------------------------------------------------------------------------
  K point      3 =   0.062500  0.062500  0.312500  Weight =    0.004
--------------------------------------------------------------------------------

  Frequencies (cm-1) [NB: Negative implies an imaginary mode]:

  396.86  407.26  515.65  825.35  830.07  974.75 1021.91 1021.91 1065.58
 1065.58 1088.90 1088.90 1180.37 1180.37 1302.04 1302.04 1336.98 1336.98
 1342.15 1346.68 1424.76 1480.52 1480.60 1506.54


--------------------------------------------------------------------------------
  K point      4 =   0.062500  0.062500  0.437500  Weight =    0.004
--------------------------------------------------------------------------------

  Frequencies (cm-1) [NB: Negative implies an imaginary mode]:

  550.24  554.49  680.44  694.90  695.77  834.94 1029.08 1029.08 1055.02
 1055.02 1076.23 1076.23 1167.45 1167.45 1318.41 1318.41 1345.38 1345.38
 1399.74 1402.46 1446.02 1447.16 1463.10 1489.58


--------------------------------------------------------------------------------
  K point      5 =   0.062500  0.062500  0.562500  Weight =    0.004
--------------------------------------------------------------------------------

  Frequencies (cm-1) [NB: Negative implies an imaginary mode]:

  550.24  554.49  680.44  694.90  695.77  834.94 1029.08 1029.08 1055.02
 1055.02 1076.23 1076.23 1167.45 1167.45 1318.41 1318.41 1345.38 1345.38
 1399.74 1402.46 1446.02 1447.16 1463.10 1489.58


--------------------------------------------------------------------------------
  K point      6 =   0.062500  0.062500  0.687500  Weight =    0.004
--------------------------------------------------------------------------------

  Frequencies (cm-1) [NB: Negative implies an imaginary mode]:

  396.86  407.26  515.65  825.35  830.07  974.75 1021.91 1021.91 1065.58
 1065.58 1088.90 1088.90 1180.37 1180.37 1302.04 1302.04 1336.98 1336.98
 1342.15 1346.68 1424.76 1480.52 1480.60 1506.54


--------------------------------------------------------------------------------
  K point      7 =   0.062500  0.062500  0.812500  Weight =    0.004
--------------------------------------------------------------------------------

  Frequencies (cm-1) [NB: Negative implies an imaginary mode]:

  242.73  257.93  347.33  941.81  949.51 1023.23 1023.23 1054.60 1054.60
 1095.46 1129.50 1129.50 1199.71 1199.71 1272.78 1272.78 1275.33 1282.69
 1321.88 1321.88 1372.64 1502.89 1503.52 1516.04


--------------------------------------------------------------------------------
  K point      8 =   0.062500  0.062500  0.937500  Weight =    0.004
--------------------------------------------------------------------------------

  Frequencies (cm-1) [NB: Negative implies an imaginary mode]:

  123.86  123.86  193.41 1030.94 1030.94 1030.94 1042.17 1042.17 1042.17
 1173.05 1173.05 1173.05 1211.35 1211.35 1211.35 1241.10 1241.10 1241.10
 1307.23 1307.23 1307.23 1514.94 1514.94 1519.37


--------------------------------------------------------------------------------
  K point      9 =   0.062500  0.187500  0.062500  Weight =    0.004
--------------------------------------------------------------------------------

  Frequencies (cm-1) [NB: Negative implies an imaginary mode]:

  242.73  257.93  347.33  941.81  949.51 1023.23 1023.23 1054.60 1054.60
 1095.46 1129.50 1129.50 1199.71 1199.71 1272.78 1272.78 1275.33 1282.69
 1321.88 1321.88 1372.64 1502.89 1503.52 1516.04


--------------------------------------------------------------------------------
  K point     10 =   0.062500  0.187500  0.187500  Weight =    0.004
--------------------------------------------------------------------------------

  Frequencies (cm-1) [NB: Negative implies an imaginary mode]:

  291.17  339.65  463.64  939.92  939.92  962.94  962.94  989.96 1071.19
 1073.50 1073.50 1104.36 1228.00 1249.62 1269.63 1269.63 1305.96 1305.96
 1348.16 1367.96 1367.96 1488.92 1493.02 1514.03


--------------------------------------------------------------------------------
  K point     11 =   0.062500  0.187500  0.312500  Weight =    0.004
--------------------------------------------------------------------------------

  Frequencies (cm-1) [NB: Negative implies an imaginary mode]:

  405.80  462.67  601.27  822.57  849.78  941.03  962.84  980.30  981.31
 1053.40 1054.83 1090.36 1222.54 1257.75 1277.10 1333.83 1335.13 1356.91
 1358.81 1366.13 1415.18 1465.64 1472.65 1503.99


--------------------------------------------------------------------------------
  K point     12 =   0.062500  0.187500  0.437500  Weight =    0.004
--------------------------------------------------------------------------------

  Frequencies (cm-1) [NB: Negative implies an imaginary mode]:

  545.57  595.22  688.08  726.05  738.32  866.40  942.05  947.03 1003.13
 1027.90 1053.00 1070.86 1227.79 1242.43 1309.96 1334.75 1362.23 1370.79
 1389.81 1403.93 1433.06 1442.72 1454.64 1484.36


--------------------------------------------------------------------------------
  K point     13 =   0.062500  0.187500  0.562500  Weight =    0.004
--------------------------------------------------------------------------------

  Frequencies (cm-1) [NB: Negative implies an imaginary mode]:

  545.57  595.22  688.08  726.05  738.32  866.40  942.05  947.03 1003.13
 1027.90 1053.00 1070.86 1227.79 1242.43 1309.96 1334.75 1362.23 1370.79
 1389.81 1403.93 1433.06 1442.72 1454.64 1484.36


--------------------------------------------------------------------------------
  K point     14 =   0.062500  0.187500  0.687500  Weight =    0.004
--------------------------------------------------------------------------------

  Frequencies (cm-1) [NB: Negative implies an imaginary mode]:

  405.80  462.67  601.27  822.57  849.78  941.03  962.84  980.30  981.31
 1053.40 1054.83 1090.36 1222.54 1257.75 1277.10 1333.83 1335.13 1356.91
 1358.81 1366.13 1415.18 1465.64 1472.65 1503.99


--------------------------------------------------------------------------------
  K point     15 =   0.062500  0.187500  0.812500  Weight =    0.004
--------------------------------------------------------------------------------

  Frequencies (cm-1) [NB: Negative implies an imaginary mode]:

  291.17  339.65  463.64  939.92  939.92  962.94  962.94  989.96 1071.19
 1073.50 1073.50 1104.36 1228.00 1249.62 1269.63 1269.63 1305.96 1305.96
 1348.16 1367.96 1367.96 1488.92 1493.02 1514.03


--------------------------------------------------------------------------------
  K point     16 =   0.062500  0.187500  0.937500  Weight =    0.004
--------------------------------------------------------------------------------

  Frequencies (cm-1) [NB: Negative implies an imaginary mode]:

  242.73  257.93  347.33  941.81  949.51 1023.23 1023.23 1054.60 1054.60
 1095.46 1129.50 1129.50 1199.71 1199.71 1272.78 1272.78 1275.33 1282.69
 1321.88 1321.88 1372.64 1502.89 1503.52 1516.04


--------------------------------------------------------------------------------
  K point     17 =   0.062500  0.312500  0.062500  Weight =    0.004
--------------------------------------------------------------------------------

  Frequencies (cm-1) [NB: Negative implies an imaginary mode]:

  396.86  407.26  515.65  825.35  830.07  974.75 1021.91 1021.91 1065.58
 1065.58 1088.90 1088.90 1180.37 1180.37 1302.04 1302.04 1336.98 1336.98
 1342.15 1346.68 1424.76 1480.52 1480.60 1506.54


--------------------------------------------------------------------------------
  K point     18 =   0.062500  0.312500  0.187500  Weight =    0.004
--------------------------------------------------------------------------------

  Frequencies (cm-1) [NB: Negative implies an imaginary mode]:

  405.80  462.67  601.27  822.57  849.78  941.03  962.84  980.30  981.31
 1053.40 1054.83 1090.36 1222.54 1257.75 1277.10 1333.83 1335.13 1356.91
 1358.81 1366.13 1415.18 1465.64 1472.65 1503.99


--------------------------------------------------------------------------------
  K point     19 =   0.062500  0.312500  0.312500  Weight =    0.004
--------------------------------------------------------------------------------

  Frequencies (cm-1) [NB: Negative implies an imaginary mode]:

  467.32  557.70  707.43  822.22  822.22  886.98  886.98  905.98  992.14
  992.14 1022.18 1073.06 1265.03 1283.19 1321.64 1321.64 1372.28 1372.28
 1384.81 1395.74 1395.74 1441.59 1457.02 1492.83


--------------------------------------------------------------------------------
  K point     20 =   0.062500  0.312500  0.437500  Weight =    0.004
--------------------------------------------------------------------------------

  Frequencies (cm-1) [NB: Negative implies an imaginary mode]:

  571.14  668.30  694.72  780.85  813.40  833.21  861.08  910.20  934.46
  982.28 1011.54 1040.03 1283.50 1303.41 1326.91 1366.16 1371.34 1385.62
 1390.98 1405.63 1410.40 1434.27 1436.80 1470.45


--------------------------------------------------------------------------------
  K point     21 =   0.062500  0.312500  0.562500  Weight =    0.004
--------------------------------------------------------------------------------

  Frequencies (cm-1) [NB: Negative implies an imaginary mode]:

  571.14  668.30  694.72  780.85  813.40  833.21  861.08  910.20  934.46
  982.28 1011.54 1040.03 1283.50 1303.41 1326.91 1366.16 1371.34 1385.62
 1390.98 1405.63 1410.40 1434.27 1436.80 1470.45


--------------------------------------------------------------------------------
  K point     22 =   0.062500  0.312500  0.687500  Weight =    0.004
--------------------------------------------------------------------------------

  Frequencies (cm-1) [NB: Negative implies an imaginary mode]:

  467.32  557.70  707.43  822.22  822.22  886.98  886.98  905.98  992.14
  992.14 1022.18 1073.06 1265.03 1283.19 1321.64 1321.64 1372.28 1372.28
 1384.81 1395.74 1395.74 1441.59 1457.02 1492.83


--------------------------------------------------------------------------------
  K point     23 =   0.062500  0.312500  0.812500  Weight =    0.004
--------------------------------------------------------------------------------

  Frequencies (cm-1) [NB: Negative implies an imaginary mode]:

  405.80  462.67  601.27  822.57  849.78  941.03  962.84  980.30  981.31
 1053.40 1054.83 1090.36 1222.54 1257.75 1277.10 1333.83 1335.13 1356.91
 1358.81 1366.13 1415.18 1465.64 1472.65 1503.99


--------------------------------------------------------------------------------
  K point     24 =   0.062500  0.312500  0.937500  Weight =    0.004
--------------------------------------------------------------------------------

  Frequencies (cm-1) [NB: Negative implies an imaginary mode]:

  396.86  407.26  515.65  825.35  830.07  974.75 1021.91 1021.91 1065.58
 1065.58 1088.90 1088.90 1180.37 1180.37 1302.04 1302.04 1336.98 1336.98
 1342.15 1346.68 1424.76 1480.52 1480.60 1506.54


--------------------------------------------------------------------------------
  K point     25 =   0.062500  0.437500  0.062500  Weight =    0.004
--------------------------------------------------------------------------------

  Frequencies (cm-1) [NB: Negative implies an imaginary mode]:

  550.24  554.49  680.44  694.90  695.77  834.94 1029.08 1029.08 1055.02
 1055.02 1076.23 1076.23 1167.45 1167.45 1318.41 1318.41 1345.38 1345.38
 1399.74 1402.46 1446.02 1447.16 1463.10 1489.58


--------------------------------------------------------------------------------
  K point     26 =   0.062500  0.437500  0.187500  Weight =    0.004
--------------------------------------------------------------------------------

  Frequencies (cm-1) [NB: Negative implies an imaginary mode]:

  545.57  595.22  688.08  726.05  738.32  866.40  942.05  947.03 1003.13
 1027.90 1053.00 1070.86 1227.79 1242.43 1309.96 1334.75 1362.23 1370.79
 1389.81 1403.93 1433.06 1442.72 1454.64 1484.36


--------------------------------------------------------------------------------
  K point     27 =   0.062500  0.437500  0.312500  Weight =    0.004
--------------------------------------------------------------------------------

  Frequencies (cm-1) [NB: Negative implies an imaginary mode]:

  571.14  668.30  694.72  780.85  813.40  833.21  861.08  910.20  934.46
  982.28 1011.54 1040.03 1283.50 1303.41 1326.91 1366.16 1371.34 1385.62
 1390.98 1405.63 1410.40 1434.27 1436.80 1470.45


--------------------------------------------------------------------------------
  K point     28 =   0.062500  0.437500  0.437500  Weight =    0.004
--------------------------------------------------------------------------------

  Frequencies (cm-1) [NB: Negative implies an imaginary mode]:

  634.93  726.78  726.78  757.31  784.45  849.45  849.45  888.28  920.36
  955.63  955.63  999.34 1319.04 1347.05 1347.05 1366.24 1381.44 1400.80
 1400.80 1403.37 1412.69 1412.69 1421.04 1445.69


--------------------------------------------------------------------------------
  K point     29 =   0.062500  0.437500  0.562500  Weight =    0.004
--------------------------------------------------------------------------------

  Frequencies (cm-1) [NB: Negative implies an imaginary mode]:

  634.93  726.78  726.78  757.31  784.45  849.45  849.45  888.28  920.36
  955.63  955.63  999.34 1319.04 1347.05 1347.05 1366.24 1381.44 1400.80
 1400.80 1403.37 1412.69 1412.69 1421.04 1445.69


--------------------------------------------------------------------------------
  K point     30 =   0.062500  0.437500  0.687500  Weight =    0.004
--------------------------------------------------------------------------------

  Frequencies (cm-1) [NB: Negative implies an imaginary mode]:

  571.14  668.30  694.72  780.85  813.40  833.21  861.08  910.20  934.46
  982.28 1011.54 1040.03 1283.50 1303.41 1326.91 1366.16 1371.34 1385.62
 1390.98 1405.63 1410.40 1434.27 1436.80 1470.45


--------------------------------------------------------------------------------
  K point     31 =   0.062500  0.437500  0.812500  Weight =    0.004
--------------------------------------------------------------------------------

  Frequencies (cm-1) [NB: Negative implies an imaginary mode]:

  545.57  595.22  688.08  726.05  738.32  866.40  942.05  947.03 1003.13
 1027.90 1053.00 1070.86 1227.79 1242.43 1309.96 1334.75 1362.23 1370.79
 1389.81 1403.93 1433.06 1442.72 1454.64 1484.36


--------------------------------------------------------------------------------
  K point     32 =   0.062500  0.437500  0.937500  Weight =    0.004
--------------------------------------------------------------------------------

  Frequencies (cm-1) [NB: Negative implies an imaginary mode]:

  550.24  554.49  680.44  694.90  695.77  834.94 1029.08 1029.08 1055.02
 1055.02 1076.23 1076.23 1167.45 1167.45 1318.41 1318.41 1345.38 1345.38
 1399.74 1402.46 1446.02 1447.16 1463.10 1489.58


--------------------------------------------------------------------------------
  K point     33 =   0.062500  0.562500  0.062500  Weight =    0.004
--------------------------------------------------------------------------------

  Frequencies (cm-1) [NB: Negative implies an imaginary mode]:

  550.24  554.49  680.44  694.90  695.77  834.94 1029.08 1029.08 1055.02
 1055.02 1076.23 1076.23 1167.45 1167.45 1318.41 1318.41 1345.38 1345.38
 1399.74 1402.46 1446.02 1447.16 1463.10 1489.58


--------------------------------------------------------------------------------
  K point     34 =   0.062500  0.562500  0.187500  Weight =    0.004
--------------------------------------------------------------------------------

  Frequencies (cm-1) [NB: Negative implies an imaginary mode]:

  545.57  595.22  688.08  726.05  738.32  866.40  942.05  947.03 1003.13
 1027.90 1053.00 1070.86 1227.79 1242.43 1309.96 1334.75 1362.23 1370.79
 1389.81 1403.93 1433.06 1442.72 1454.64 1484.36


--------------------------------------------------------------------------------
  K point     35 =   0.062500  0.562500  0.312500  Weight =    0.004
--------------------------------------------------------------------------------

  Frequencies (cm-1) [NB: Negative implies an imaginary mode]:

  571.14  668.30  694.72  780.85  813.40  833.21  861.08  910.20  934.46
  982.28 1011.54 1040.03 1283.50 1303.41 1326.91 1366.16 1371.34 1385.62
 1390.98 1405.63 1410.40 1434.27 1436.80 1470.45


--------------------------------------------------------------------------------
  K point     36 =   0.062500  0.562500  0.437500  Weight =    0.004
--------------------------------------------------------------------------------

  Frequencies (cm-1) [NB: Negative implies an imaginary mode]:

  634.93  726.78  726.78  757.31  784.45  849.45  849.45  888.28  920.36
  955.63  955.63  999.34 1319.04 1347.05 1347.05 1366.24 1381.44 1400.80
 1400.80 1403.37 1412.69 1412.69 1421.04 1445.69


--------------------------------------------------------------------------------
  K point     37 =   0.062500  0.562500  0.562500  Weight =    0.004
--------------------------------------------------------------------------------

  Frequencies (cm-1) [NB: Negative implies an imaginary mode]:

  634.93  726.78  726.78  757.31  784.45  849.45  849.45  888.28  920.36
  955.63  955.63  999.34 1319.04 1347.05 1347.05 1366.24 1381.44 1400.80
 1400.80 1403.37 1412.69 1412.69 1421.04 1445.69


--------------------------------------------------------------------------------
  K point     38 =   0.062500  0.562500  0.687500  Weight =    0.004
--------------------------------------------------------------------------------

  Frequencies (cm-1) [NB: Negative implies an imaginary mode]:

  571.14  668.30  694.72  780.85  813.40  833.21  861.08  910.20  934.46
  982.28 1011.54 1040.03 1283.50 1303.41 1326.91 1366.16 1371.34 1385.62
 1390.98 1405.63 1410.40 1434.27 1436.80 1470.45


--------------------------------------------------------------------------------
  K point     39 =   0.062500  0.562500  0.812500  Weight =    0.004
--------------------------------------------------------------------------------

  Frequencies (cm-1) [NB: Negative implies an imaginary mode]:

  545.57  595.22  688.08  726.05  738.32  866.40  942.05  947.03 1003.13
 1027.90 1053.00 1070.86 1227.79 1242.43 1309.96 1334.75 1362.23 1370.79
 1389.81 1403.93 1433.06 1442.72 1454.64 1484.36


--------------------------------------------------------------------------------
  K point     40 =   0.062500  0.562500  0.937500  Weight =    0.004
--------------------------------------------------------------------------------

  Frequencies (cm-1) [NB: Negative implies an imaginary mode]:

  550.24  554.49  680.44  694.90  695.77  834.94 1029.08 1029.08 1055.02
 1055.02 1076.23 1076.23 1167.45 1167.45 1318.41 1318.41 1345.38 1345.38
 1399.74 1402.46 1446.02 1447.16 1463.10 1489.58


--------------------------------------------------------------------------------
  K point     41 =   0.062500  0.687500  0.062500  Weight =    0.004
--------------------------------------------------------------------------------

  Frequencies (cm-1) [NB: Negative implies an imaginary mode]:

  396.86  407.26  515.65  825.35  830.07  974.75 1021.91 1021.91 1065.58
 1065.58 1088.90 1088.90 1180.37 1180.37 1302.04 1302.04 1336.98 1336.98
 1342.15 1346.68 1424.76 1480.52 1480.60 1506.54


--------------------------------------------------------------------------------
  K point     42 =   0.062500  0.687500  0.187500  Weight =    0.004
--------------------------------------------------------------------------------

  Frequencies (cm-1) [NB: Negative implies an imaginary mode]:

  405.80  462.67  601.27  822.57  849.78  941.03  962.84  980.30  981.31
 1053.40 1054.83 1090.36 1222.54 1257.75 1277.10 1333.83 1335.13 1356.91
 1358.81 1366.13 1415.18 1465.64 1472.65 1503.99


--------------------------------------------------------------------------------
  K point     43 =   0.062500  0.687500  0.312500  Weight =    0.004
--------------------------------------------------------------------------------

  Frequencies (cm-1) [NB: Negative implies an imaginary mode]:

  467.32  557.70  707.43  822.22  822.22  886.98  886.98  905.98  992.14
  992.14 1022.18 1073.06 1265.03 1283.19 1321.64 1321.64 1372.28 1372.28
 1384.81 1395.74 1395.74 1441.59 1457.02 1492.83


--------------------------------------------------------------------------------
  K point     44 =   0.062500  0.687500  0.437500  Weight =    0.004
--------------------------------------------------------------------------------

  Frequencies (cm-1) [NB: Negative implies an imaginary mode]:

  571.14  668.30  694.72  780.85  813.40  833.21  861.08  910.20  934.46
  982.28 1011.54 1040.03 1283.50 1303.41 1326.91 1366.16 1371.34 1385.62
 1390.98 1405.63 1410.40 1434.27 1436.80 1470.45


--------------------------------------------------------------------------------
  K point     45 =   0.062500  0.687500  0.562500  Weight =    0.004
--------------------------------------------------------------------------------

  Frequencies (cm-1) [NB: Negative implies an imaginary mode]:

  571.14  668.30  694.72  780.85  813.40  833.21  861.08  910.20  934.46
  982.28 1011.54 1040.03 1283.50 1303.41 1326.91 1366.16 1371.34 1385.62
 1390.98 1405.63 1410.40 1434.27 1436.80 1470.45


--------------------------------------------------------------------------------
  K point     46 =   0.062500  0.687500  0.687500  Weight =    0.004
--------------------------------------------------------------------------------

  Frequencies (cm-1) [NB: Negative implies an imaginary mode]:

  467.32  557.70  707.43  822.22  822.22  886.98  886.98  905.98  992.14
  992.14 1022.18 1073.06 1265.03 1283.19 1321.64 1321.64 1372.28 1372.28
 1384.81 1395.74 1395.74 1441.59 1457.02 1492.83


--------------------------------------------------------------------------------
  K point     47 =   0.062500  0.687500  0.812500  Weight =    0.004
--------------------------------------------------------------------------------

  Frequencies (cm-1) [NB: Negative implies an imaginary mode]:

  405.80  462.67  601.27  822.57  849.78  941.03  962.84  980.30  981.31
 1053.40 1054.83 1090.36 1222.54 1257.75 1277.10 1333.83 1335.13 1356.91
 1358.81 1366.13 1415.18 1465.64 1472.65 1503.99


--------------------------------------------------------------------------------
  K point     48 =   0.062500  0.687500  0.937500  Weight =    0.004
--------------------------------------------------------------------------------

  Frequencies (cm-1) [NB: Negative implies an imaginary mode]:

  396.86  407.26  515.65  825.35  830.07  974.75 1021.91 1021.91 1065.58
 1065.58 1088.90 1088.90 1180.37 1180.37 1302.04 1302.04 1336.98 1336.98
 1342.15 1346.68 1424.76 1480.52 1480.60 1506.54


--------------------------------------------------------------------------------
  K point     49 =   0.062500  0.812500  0.062500  Weight =    0.004
--------------------------------------------------------------------------------

  Frequencies (cm-1) [NB: Negative implies an imaginary mode]:

  242.73  257.93  347.33  941.81  949.51 1023.23 1023.23 1054.60 1054.60
 1095.46 1129.50 1129.50 1199.71 1199.71 1272.78 1272.78 1275.33 1282.69
 1321.88 1321.88 1372.64 1502.89 1503.52 1516.04


--------------------------------------------------------------------------------
  K point     50 =   0.062500  0.812500  0.187500  Weight =    0.004
--------------------------------------------------------------------------------

  Frequencies (cm-1) [NB: Negative implies an imaginary mode]:

  291.17  339.65  463.64  939.92  939.92  962.94  962.94  989.96 1071.19
 1073.50 1073.50 1104.36 1228.00 1249.62 1269.63 1269.63 1305.96 1305.96
 1348.16 1367.96 1367.96 1488.92 1493.02 1514.03


--------------------------------------------------------------------------------
  K point     51 =   0.062500  0.812500  0.312500  Weight =    0.004
--------------------------------------------------------------------------------

  Frequencies (cm-1) [NB: Negative implies an imaginary mode]:

  405.80  462.67  601.27  822.57  849.78  941.03  962.84  980.30  981.31
 1053.40 1054.83 1090.36 1222.54 1257.75 1277.10 1333.83 1335.13 1356.91
 1358.81 1366.13 1415.18 1465.64 1472.65 1503.99


--------------------------------------------------------------------------------
  K point     52 =   0.062500  0.812500  0.437500  Weight =    0.004
--------------------------------------------------------------------------------

  Frequencies (cm-1) [NB: Negative implies an imaginary mode]:

  545.57  595.22  688.08  726.05  738.32  866.40  942.05  947.03 1003.13
 1027.90 1053.00 1070.86 1227.79 1242.43 1309.96 1334.75 1362.23 1370.79
 1389.81 1403.93 1433.06 1442.72 1454.64 1484.36


--------------------------------------------------------------------------------
  K point     53 =   0.062500  0.812500  0.562500  Weight =    0.004
--------------------------------------------------------------------------------

  Frequencies (cm-1) [NB: Negative implies an imaginary mode]:

  545.57  595.22  688.08  726.05  738.32  866.40  942.05  947.03 1003.13
 1027.90 1053.00 1070.86 1227.79 1242.43 1309.96 1334.75 1362.23 1370.79
 1389.81 1403.93 1433.06 1442.72 1454.64 1484.36


--------------------------------------------------------------------------------
  K point     54 =   0.062500  0.812500  0.687500  Weight =    0.004
--------------------------------------------------------------------------------

  Frequencies (cm-1) [NB: Negative implies an imaginary mode]:

  405.80  462.67  601.27  822.57  849.78  941.03  962.84  980.30  981.31
 1053.40 1054.83 1090.36 1222.54 1257.75 1277.10 1333.83 1335.13 1356.91
 1358.81 1366.13 1415.18 1465.64 1472.65 1503.99


--------------------------------------------------------------------------------
  K point     55 =   0.062500  0.812500  0.812500  Weight =    0.004
--------------------------------------------------------------------------------

  Frequencies (cm-1) [NB: Negative implies an imaginary mode]:

  291.17  339.65  463.64  939.92  939.92  962.94  962.94  989.96 1071.19
 1073.50 1073.50 1104.36 1228.00 1249.62 1269.63 1269.63 1305.96 1305.96
 1348.16 1367.96 1367.96 1488.92 1493.02 1514.03


--------------------------------------------------------------------------------
  K point     56 =   0.062500  0.812500  0.937500  Weight =    0.004
--------------------------------------------------------------------------------

  Frequencies (cm-1) [NB: Negative implies an imaginary mode]:

  242.73  257.93  347.33  941.81  949.51 1023.23 1023.23 1054.60 1054.60
 1095.46 1129.50 1129.50 1199.71 1199.71 1272.78 1272.78 1275.33 1282.69
 1321.88 1321.88 1372.64 1502.89 1503.52 1516.04


--------------------------------------------------------------------------------
  K point     57 =   0.062500  0.937500  0.062500  Weight =    0.004
--------------------------------------------------------------------------------

  Frequencies (cm-1) [NB: Negative implies an imaginary mode]:

  123.86  123.86  193.41 1030.94 1030.94 1030.94 1042.17 1042.17 1042.17
 1173.05 1173.05 1173.05 1211.35 1211.35 1211.35 1241.10 1241.10 1241.10
 1307.23 1307.23 1307.23 1514.94 1514.94 1519.37


--------------------------------------------------------------------------------
  K point     58 =   0.062500  0.937500  0.187500  Weight =    0.004
--------------------------------------------------------------------------------

  Frequencies (cm-1) [NB: Negative implies an imaginary mode]:

  242.73  257.93  347.33  941.81  949.51 1023.23 1023.23 1054.60 1054.60
 1095.46 1129.50 1129.50 1199.71 1199.71 1272.78 1272.78 1275.33 1282.69
 1321.88 1321.88 1372.64 1502.89 1503.52 1516.04


--------------------------------------------------------------------------------
  K point     59 =   0.062500  0.937500  0.312500  Weight =    0.004
--------------------------------------------------------------------------------

  Frequencies (cm-1) [NB: Negative implies an imaginary mode]:

  396.86  407.26  515.65  825.35  830.07  974.75 1021.91 1021.91 1065.58
 1065.58 1088.90 1088.90 1180.37 1180.37 1302.04 1302.04 1336.98 1336.98
 1342.15 1346.68 1424.76 1480.52 1480.60 1506.54


--------------------------------------------------------------------------------
  K point     60 =   0.062500  0.937500  0.437500  Weight =    0.004
--------------------------------------------------------------------------------

  Frequencies (cm-1) [NB: Negative implies an imaginary mode]:

  550.24  554.49  680.44  694.90  695.77  834.94 1029.08 1029.08 1055.02
 1055.02 1076.23 1076.23 1167.45 1167.45 1318.41 1318.41 1345.38 1345.38
 1399.74 1402.46 1446.02 1447.16 1463.10 1489.58


--------------------------------------------------------------------------------
  K point     61 =   0.062500  0.937500  0.562500  Weight =    0.004
--------------------------------------------------------------------------------

  Frequencies (cm-1) [NB: Negative implies an imaginary mode]:

  550.24  554.49  680.44  694.90  695.77  834.94 1029.08 1029.08 1055.02
 1055.02 1076.23 1076.23 1167.45 1167.45 1318.41 1318.41 1345.38 1345.38
 1399.74 1402.46 1446.02 1447.16 1463.10 1489.58


--------------------------------------------------------------------------------
  K point     62 =   0.062500  0.937500  0.687500  Weight =    0.004
--------------------------------------------------------------------------------

  Frequencies (cm-1) [NB: Negative implies an imaginary mode]:

  396.86  407.26  515.65  825.35  830.07  974.75 1021.91 1021.91 1065.58
 1065.58 1088.90 1088.90 1180.37 1180.37 1302.04 1302.04 1336.98 1336.98
 1342.15 1346.68 1424.76 1480.52 1480.60 1506.54


--------------------------------------------------------------------------------
  K point     63 =   0.062500  0.937500  0.812500  Weight =    0.004
--------------------------------------------------------------------------------

  Frequencies (cm-1) [NB: Negative implies an imaginary mode]:

  242.73  257.93  347.33  941.81  949.51 1023.23 1023.23 1054.60 1054.60
 1095.46 1129.50 1129.50 1199.71 1199.71 1272.78 1272.78 1275.33 1282.69
 1321.88 1321.88 1372.64 1502.89 1503.52 1516.04


--------------------------------------------------------------------------------
  K point     64 =   0.062500  0.937500  0.937500  Weight =    0.004
--------------------------------------------------------------------------------

  Frequencies (cm-1) [NB: Negative implies an imaginary mode]:

  123.86  123.86  193.41 1030.94 1030.94 1030.94 1042.17 1042.17 1042.17
 1173.05 1173.05 1173.05 1211.35 1211.35 1211.35 1241.10 1241.10 1241.10
 1307.23 1307.23 1307.23 1514.94 1514.94 1519.37


--------------------------------------------------------------------------------
  K point     65 =   0.187500  0.062500  0.062500  Weight =    0.004
--------------------------------------------------------------------------------

  Frequencies (cm-1) [NB: Negative implies an imaginary mode]:

  242.73  257.93  347.33  941.81  949.51 1023.23 1023.23 1054.60 1054.60
 1095.46 1129.50 1129.50 1199.71 1199.71 1272.78 1272.78 1275.33 1282.69
 1321.88 1321.88 1372.64 1502.89 1503.52 1516.04


--------------------------------------------------------------------------------
  K point     66 =   0.187500  0.062500  0.187500  Weight =    0.004
--------------------------------------------------------------------------------

  Frequencies (cm-1) [NB: Negative implies an imaginary mode]:

  291.17  339.65  463.64  939.92  939.92  962.94  962.94  989.96 1071.19
 1073.50 1073.50 1104.36 1228.00 1249.62 1269.63 1269.63 1305.96 1305.96
 1348.16 1367.96 1367.96 1488.92 1493.02 1514.03


--------------------------------------------------------------------------------
  K point     67 =   0.187500  0.062500  0.312500  Weight =    0.004
--------------------------------------------------------------------------------

  Frequencies (cm-1) [NB: Negative implies an imaginary mode]:

  405.80  462.67  601.27  822.57  849.78  941.03  962.84  980.30  981.31
 1053.40 1054.83 1090.36 1222.54 1257.75 1277.10 1333.83 1335.13 1356.91
 1358.81 1366.13 1415.18 1465.64 1472.65 1503.99


--------------------------------------------------------------------------------
  K point     68 =   0.187500  0.062500  0.437500  Weight =    0.004
--------------------------------------------------------------------------------

  Frequencies (cm-1) [NB: Negative implies an imaginary mode]:

  545.57  595.22  688.08  726.05  738.32  866.40  942.05  947.03 1003.13
 1027.90 1053.00 1070.86 1227.79 1242.43 1309.96 1334.75 1362.23 1370.79
 1389.81 1403.93 1433.06 1442.72 1454.64 1484.36


--------------------------------------------------------------------------------
  K point     69 =   0.187500  0.062500  0.562500  Weight =    0.004
--------------------------------------------------------------------------------

  Frequencies (cm-1) [NB: Negative implies an imaginary mode]:

  545.57  595.22  688.08  726.05  738.32  866.40  942.05  947.03 1003.13
 1027.90 1053.00 1070.86 1227.79 1242.43 1309.96 1334.75 1362.23 1370.79
 1389.81 1403.93 1433.06 1442.72 1454.64 1484.36


--------------------------------------------------------------------------------
  K point     70 =   0.187500  0.062500  0.687500  Weight =    0.004
--------------------------------------------------------------------------------

  Frequencies (cm-1) [NB: Negative implies an imaginary mode]:

  405.80  462.67  601.27  822.57  849.78  941.03  962.84  980.30  981.31
 1053.40 1054.83 1090.36 1222.54 1257.75 1277.10 1333.83 1335.13 1356.91
 1358.81 1366.13 1415.18 1465.64 1472.65 1503.99


--------------------------------------------------------------------------------
  K point     71 =   0.187500  0.062500  0.812500  Weight =    0.004
--------------------------------------------------------------------------------

  Frequencies (cm-1) [NB: Negative implies an imaginary mode]:

  291.17  339.65  463.64  939.92  939.92  962.94  962.94  989.96 1071.19
 1073.50 1073.50 1104.36 1228.00 1249.62 1269.63 1269.63 1305.96 1305.96
 1348.16 1367.96 1367.96 1488.92 1493.02 1514.03


--------------------------------------------------------------------------------
  K point     72 =   0.187500  0.062500  0.937500  Weight =    0.004
--------------------------------------------------------------------------------

  Frequencies (cm-1) [NB: Negative implies an imaginary mode]:

  242.73  257.93  347.33  941.81  949.51 1023.23 1023.23 1054.60 1054.60
 1095.46 1129.50 1129.50 1199.71 1199.71 1272.78 1272.78 1275.33 1282.69
 1321.88 1321.88 1372.64 1502.89 1503.52 1516.04


--------------------------------------------------------------------------------
  K point     73 =   0.187500  0.187500  0.062500  Weight =    0.004
--------------------------------------------------------------------------------

  Frequencies (cm-1) [NB: Negative implies an imaginary mode]:

  291.17  339.65  463.64  939.92  939.92  962.94  962.94  989.96 1071.19
 1073.50 1073.50 1104.36 1228.00 1249.62 1269.63 1269.63 1305.96 1305.96
 1348.16 1367.96 1367.96 1488.92 1493.02 1514.03


--------------------------------------------------------------------------------
  K point     74 =   0.187500  0.187500  0.187500  Weight =    0.004
--------------------------------------------------------------------------------

  Frequencies (cm-1) [NB: Negative implies an imaginary mode]:

  361.47  361.47  560.47  921.13  921.13  921.13  971.33  971.33  971.33
 1068.51 1068.51 1068.51 1274.90 1274.90 1274.90 1309.36 1309.36 1309.36
 1370.57 1370.57 1370.57 1478.23 1478.23 1513.22


--------------------------------------------------------------------------------
  K point     75 =   0.187500  0.187500  0.312500  Weight =    0.004
--------------------------------------------------------------------------------

  Frequencies (cm-1) [NB: Negative implies an imaginary mode]:

  447.74  468.62  680.41  821.73  846.17  906.85  906.85  965.46  965.46
  999.24 1069.67 1069.67 1272.26 1272.26 1323.46 1323.46 1331.31 1361.82
 1372.24 1372.24 1408.27 1456.33 1456.86 1503.76


--------------------------------------------------------------------------------
  K point     76 =   0.187500  0.187500  0.437500  Weight =    0.004
--------------------------------------------------------------------------------

  Frequencies (cm-1) [NB: Negative implies an imaginary mode]:

  572.36  588.24  708.32  709.97  799.46  900.08  900.08  907.70  955.86
  955.86 1074.10 1074.10 1267.70 1267.70 1336.66 1336.66 1371.39 1371.39
 1382.62 1399.36 1424.88 1429.91 1449.73 1482.77


--------------------------------------------------------------------------------
  K point     77 =   0.187500  0.187500  0.562500  Weight =    0.004
--------------------------------------------------------------------------------

  Frequencies (cm-1) [NB: Negative implies an imaginary mode]:

  572.36  588.24  708.32  709.97  799.46  900.08  900.08  907.70  955.86
  955.86 1074.10 1074.10 1267.70 1267.70 1336.66 1336.66 1371.39 1371.39
 1382.62 1399.36 1424.88 1429.91 1449.73 1482.77


--------------------------------------------------------------------------------
  K point     78 =   0.187500  0.187500  0.687500  Weight =    0.004
--------------------------------------------------------------------------------

  Frequencies (cm-1) [NB: Negative implies an imaginary mode]:

  447.74  468.62  680.41  821.73  846.17  906.85  906.85  965.46  965.46
  999.24 1069.67 1069.67 1272.26 1272.26 1323.46 1323.46 1331.31 1361.82
 1372.24 1372.24 1408.27 1456.33 1456.86 1503.76


--------------------------------------------------------------------------------
  K point     79 =   0.187500  0.187500  0.812500  Weight =    0.004
--------------------------------------------------------------------------------

  Frequencies (cm-1) [NB: Negative implies an imaginary mode]:

  361.47  361.47  560.47  921.13  921.13  921.13  971.33  971.33  971.33
 1068.51 1068.51 1068.51 1274.90 1274.90 1274.90 1309.36 1309.36 1309.36
 1370.57 1370.57 1370.57 1478.23 1478.23 1513.22


--------------------------------------------------------------------------------
  K point     80 =   0.187500  0.187500  0.937500  Weight =    0.004
--------------------------------------------------------------------------------

  Frequencies (cm-1) [NB: Negative implies an imaginary mode]:

  291.17  339.65  463.64  939.92  939.92  962.94  962.94  989.96 1071.19
 1073.50 1073.50 1104.36 1228.00 1249.62 1269.63 1269.63 1305.96 1305.96
 1348.16 1367.96 1367.96 1488.92 1493.02 1514.03


--------------------------------------------------------------------------------
  K point     81 =   0.187500  0.312500  0.062500  Weight =    0.004
--------------------------------------------------------------------------------

  Frequencies (cm-1) [NB: Negative implies an imaginary mode]:

  405.80  462.67  601.27  822.57  849.78  941.03  962.84  980.30  981.31
 1053.40 1054.83 1090.36 1222.54 1257.75 1277.10 1333.83 1335.13 1356.91
 1358.81 1366.13 1415.18 1465.64 1472.65 1503.99


--------------------------------------------------------------------------------
  K point     82 =   0.187500  0.312500  0.187500  Weight =    0.004
--------------------------------------------------------------------------------

  Frequencies (cm-1) [NB: Negative implies an imaginary mode]:

  447.74  468.62  680.41  821.73  846.17  906.85  906.85  965.46  965.46
  999.24 1069.67 1069.67 1272.26 1272.26 1323.46 1323.46 1331.31 1361.82
 1372.24 1372.24 1408.27 1456.33 1456.86 1503.76


--------------------------------------------------------------------------------
  K point     83 =   0.187500  0.312500  0.312500  Weight =    0.004
--------------------------------------------------------------------------------

  Frequencies (cm-1) [NB: Negative implies an imaginary mode]:

  502.77  542.80  779.78  816.06  816.06  856.38  856.38  867.04  937.66
 1026.19 1026.19 1078.86 1288.35 1322.66 1322.66 1327.83 1370.58 1370.58
 1381.59 1394.55 1394.55 1432.92 1439.21 1494.79


--------------------------------------------------------------------------------
  K point     84 =   0.187500  0.312500  0.437500  Weight =    0.004
--------------------------------------------------------------------------------

  Frequencies (cm-1) [NB: Negative implies an imaginary mode]:

  593.41  641.72  705.08  747.60  818.17  835.38  876.71  878.00  906.48
  960.84 1052.65 1072.28 1299.18 1310.93 1349.50 1367.34 1373.37 1380.22
 1383.96 1393.46 1403.92 1416.28 1438.34 1473.34


--------------------------------------------------------------------------------
  K point     85 =   0.187500  0.312500  0.562500  Weight =    0.004
--------------------------------------------------------------------------------

  Frequencies (cm-1) [NB: Negative implies an imaginary mode]:

  593.41  641.72  705.08  747.60  818.17  835.38  876.71  878.00  906.48
  960.84 1052.65 1072.28 1299.18 1310.93 1349.50 1367.34 1373.37 1380.22
 1383.96 1393.46 1403.92 1416.28 1438.34 1473.34


--------------------------------------------------------------------------------
  K point     86 =   0.187500  0.312500  0.687500  Weight =    0.004
--------------------------------------------------------------------------------

  Frequencies (cm-1) [NB: Negative implies an imaginary mode]:

  502.77  542.80  779.78  816.06  816.06  856.38  856.38  867.04  937.66
 1026.19 1026.19 1078.86 1288.35 1322.66 1322.66 1327.83 1370.58 1370.58
 1381.59 1394.55 1394.55 1432.92 1439.21 1494.79


--------------------------------------------------------------------------------
  K point     87 =   0.187500  0.312500  0.812500  Weight =    0.004
--------------------------------------------------------------------------------

  Frequencies (cm-1) [NB: Negative implies an imaginary mode]:

  447.74  468.62  680.41  821.73  846.17  906.85  906.85  965.46  965.46
  999.24 1069.67 1069.67 1272.26 1272.26 1323.46 1323.46 1331.31 1361.82
 1372.24 1372.24 1408.27 1456.33 1456.86 1503.76


--------------------------------------------------------------------------------
  K point     88 =   0.187500  0.312500  0.937500  Weight =    0.004
--------------------------------------------------------------------------------

  Frequencies (cm-1) [NB: Negative implies an imaginary mode]:

  405.80  462.67  601.27  822.57  849.78  941.03  962.84  980.30  981.31
 1053.40 1054.83 1090.36 1222.54 1257.75 1277.10 1333.83 1335.13 1356.91
 1358.81 1366.13 1415.18 1465.64 1472.65 1503.99


--------------------------------------------------------------------------------
  K point     89 =   0.187500  0.437500  0.062500  Weight =    0.004
--------------------------------------------------------------------------------

  Frequencies (cm-1) [NB: Negative implies an imaginary mode]:

  545.57  595.22  688.08  726.05  738.32  866.40  942.05  947.03 1003.13
 1027.90 1053.00 1070.86 1227.79 1242.43 1309.96 1334.75 1362.23 1370.79
 1389.81 1403.93 1433.06 1442.72 1454.64 1484.36


--------------------------------------------------------------------------------
  K point     90 =   0.187500  0.437500  0.187500  Weight =    0.004
--------------------------------------------------------------------------------

  Frequencies (cm-1) [NB: Negative implies an imaginary mode]:

  572.36  588.24  708.32  709.97  799.46  900.08  900.08  907.70  955.86
  955.86 1074.10 1074.10 1267.70 1267.70 1336.66 1336.66 1371.39 1371.39
 1382.62 1399.36 1424.88 1429.91 1449.73 1482.77


--------------------------------------------------------------------------------
  K point     91 =   0.187500  0.437500  0.312500  Weight =    0.004
--------------------------------------------------------------------------------

  Frequencies (cm-1) [NB: Negative implies an imaginary mode]:

  593.41  641.72  705.08  747.60  818.17  835.38  876.71  878.00  906.48
  960.84 1052.65 1072.28 1299.18 1310.93 1349.50 1367.34 1373.37 1380.22
 1383.96 1393.46 1403.92 1416.28 1438.34 1473.34


--------------------------------------------------------------------------------
  K point     92 =   0.187500  0.437500  0.437500  Weight =    0.004
--------------------------------------------------------------------------------

  Frequencies (cm-1) [NB: Negative implies an imaginary mode]:

  646.19  716.47  726.44  726.44  772.65  797.58  797.58  852.54  950.28
 1010.66 1010.66 1049.62 1324.73 1347.09 1347.09 1370.34 1377.41 1385.13
 1385.13 1399.81 1400.51 1420.18 1420.18 1452.63


--------------------------------------------------------------------------------
  K point     93 =   0.187500  0.437500  0.562500  Weight =    0.004
--------------------------------------------------------------------------------

  Frequencies (cm-1) [NB: Negative implies an imaginary mode]:

  646.19  716.47  726.44  726.44  772.65  797.58  797.58  852.54  950.28
 1010.66 1010.66 1049.62 1324.73 1347.09 1347.09 1370.34 1377.41 1385.13
 1385.13 1399.81 1400.51 1420.18 1420.18 1452.63


--------------------------------------------------------------------------------
  K point     94 =   0.187500  0.437500  0.687500  Weight =    0.004
--------------------------------------------------------------------------------

  Frequencies (cm-1) [NB: Negative implies an imaginary mode]:

  593.41  641.72  705.08  747.60  818.17  835.38  876.71  878.00  906.48
  960.84 1052.65 1072.28 1299.18 1310.93 1349.50 1367.34 1373.37 1380.22
 1383.96 1393.46 1403.92 1416.28 1438.34 1473.34


--------------------------------------------------------------------------------
  K point     95 =   0.187500  0.437500  0.812500  Weight =    0.004
--------------------------------------------------------------------------------

  Frequencies (cm-1) [NB: Negative implies an imaginary mode]:

  572.36  588.24  708.32  709.97  799.46  900.08  900.08  907.70  955.86
  955.86 1074.10 1074.10 1267.70 1267.70 1336.66 1336.66 1371.39 1371.39
 1382.62 1399.36 1424.88 1429.91 1449.73 1482.77


--------------------------------------------------------------------------------
  K point     96 =   0.187500  0.437500  0.937500  Weight =    0.004
--------------------------------------------------------------------------------

  Frequencies (cm-1) [NB: Negative implies an imaginary mode]:

  545.57  595.22  688.08  726.05  738.32  866.40  942.05  947.03 1003.13
 1027.90 1053.00 1070.86 1227.79 1242.43 1309.96 1334.75 1362.23 1370.79
 1389.81 1403.93 1433.06 1442.72 1454.64 1484.36


--------------------------------------------------------------------------------
  K point     97 =   0.187500  0.562500  0.062500  Weight =    0.004
--------------------------------------------------------------------------------

  Frequencies (cm-1) [NB: Negative implies an imaginary mode]:

  545.57  595.22  688.08  726.05  738.32  866.40  942.05  947.03 1003.13
 1027.90 1053.00 1070.86 1227.79 1242.43 1309.96 1334.75 1362.23 1370.79
 1389.81 1403.93 1433.06 1442.72 1454.64 1484.36


--------------------------------------------------------------------------------
  K point     98 =   0.187500  0.562500  0.187500  Weight =    0.004
--------------------------------------------------------------------------------

  Frequencies (cm-1) [NB: Negative implies an imaginary mode]:

  572.36  588.24  708.32  709.97  799.46  900.08  900.08  907.70  955.86
  955.86 1074.10 1074.10 1267.70 1267.70 1336.66 1336.66 1371.39 1371.39
 1382.62 1399.36 1424.88 1429.91 1449.73 1482.77


--------------------------------------------------------------------------------
  K point     99 =   0.187500  0.562500  0.312500  Weight =    0.004
--------------------------------------------------------------------------------

  Frequencies (cm-1) [NB: Negative implies an imaginary mode]:

  593.41  641.72  705.08  747.60  818.17  835.38  876.71  878.00  906.48
  960.84 1052.65 1072.28 1299.18 1310.93 1349.50 1367.34 1373.37 1380.22
 1383.96 1393.46 1403.92 1416.28 1438.34 1473.34


--------------------------------------------------------------------------------
  K point    100 =   0.187500  0.562500  0.437500  Weight =    0.004
--------------------------------------------------------------------------------

  Frequencies (cm-1) [NB: Negative implies an imaginary mode]:

  646.19  716.47  726.44  726.44  772.65  797.58  797.58  852.54  950.28
 1010.66 1010.66 1049.62 1324.73 1347.09 1347.09 1370.34 1377.41 1385.13
 1385.13 1399.81 1400.51 1420.18 1420.18 1452.63


--------------------------------------------------------------------------------
  K point    101 =   0.187500  0.562500  0.562500  Weight =    0.004
--------------------------------------------------------------------------------

  Frequencies (cm-1) [NB: Negative implies an imaginary mode]:

  646.19  716.47  726.44  726.44  772.65  797.58  797.58  852.54  950.28
 1010.66 1010.66 1049.62 1324.73 1347.09 1347.09 1370.34 1377.41 1385.13
 1385.13 1399.81 1400.51 1420.18 1420.18 1452.63


--------------------------------------------------------------------------------
  K point    102 =   0.187500  0.562500  0.687500  Weight =    0.004
--------------------------------------------------------------------------------

  Frequencies (cm-1) [NB: Negative implies an imaginary mode]:

  593.41  641.72  705.08  747.60  818.17  835.38  876.71  878.00  906.48
  960.84 1052.65 1072.28 1299.18 1310.93 1349.50 1367.34 1373.37 1380.22
 1383.96 1393.46 1403.92 1416.28 1438.34 1473.34


--------------------------------------------------------------------------------
  K point    103 =   0.187500  0.562500  0.812500  Weight =    0.004
--------------------------------------------------------------------------------

  Frequencies (cm-1) [NB: Negative implies an imaginary mode]:

  572.36  588.24  708.32  709.97  799.46  900.08  900.08  907.70  955.86
  955.86 1074.10 1074.10 1267.70 1267.70 1336.66 1336.66 1371.39 1371.39
 1382.62 1399.36 1424.88 1429.91 1449.73 1482.77


--------------------------------------------------------------------------------
  K point    104 =   0.187500  0.562500  0.937500  Weight =    0.004
--------------------------------------------------------------------------------

  Frequencies (cm-1) [NB: Negative implies an imaginary mode]:

  545.57  595.22  688.08  726.05  738.32  866.40  942.05  947.03 1003.13
 1027.90 1053.00 1070.86 1227.79 1242.43 1309.96 1334.75 1362.23 1370.79
 1389.81 1403.93 1433.06 1442.72 1454.64 1484.36


--------------------------------------------------------------------------------
  K point    105 =   0.187500  0.687500  0.062500  Weight =    0.004
--------------------------------------------------------------------------------

  Frequencies (cm-1) [NB: Negative implies an imaginary mode]:

  405.80  462.67  601.27  822.57  849.78  941.03  962.84  980.30  981.31
 1053.40 1054.83 1090.36 1222.54 1257.75 1277.10 1333.83 1335.13 1356.91
 1358.81 1366.13 1415.18 1465.64 1472.65 1503.99


--------------------------------------------------------------------------------
  K point    106 =   0.187500  0.687500  0.187500  Weight =    0.004
--------------------------------------------------------------------------------

  Frequencies (cm-1) [NB: Negative implies an imaginary mode]:

  447.74  468.62  680.41  821.73  846.17  906.85  906.85  965.46  965.46
[...]
  Zero point energy            =        1.649438 eV
  Entropy                      =        0.000002 eV/K
                               =        0.212874 J/(mol.K)
  Helmholtz free-energy        =      -57.267691 eV
                               =    -5525.456237 kJmol-1
  Free energy (equipartition)  =      -58.429888 eV
  - T*S       (equipartition)  =        0.321747 eV
  Uvib        (equipartition)  =        0.165453 eV
  Mean kinetic energy          =        0.824787 eV
  Heat capacity - const volume =        0.000007 eV/K
                               =        0.683035 J/(mol.K)
--------------------------------------------------------------------------------
  Phonon properties (per mole of unit cells): Temperature =     90.000 K
--------------------------------------------------------------------------------
  Zero point energy            =        1.649438 eV
  Entropy                      =        0.000003 eV/K
                               =        0.310355 J/(mol.K)
  Helmholtz free-energy        =      -57.267717 eV
                               =    -5525.458832 kJmol-1
  Free energy (equipartition)  =      -58.390911 eV
  - T*S       (equipartition)  =        0.340042 eV
  Uvib        (equipartition)  =        0.186134 eV
  Mean kinetic energy          =        0.824830 eV
  Heat capacity - const volume =        0.000010 eV/K
                               =        0.992235 J/(mol.K)
--------------------------------------------------------------------------------
  Phonon properties (per mole of unit cells): Temperature =    100.000 K
--------------------------------------------------------------------------------
  Zero point energy            =        1.649438 eV
  Entropy                      =        0.000005 eV/K
                               =        0.434766 J/(mol.K)
  Helmholtz free-energy        =      -57.267756 eV
                               =    -5525.462533 kJmol-1
  Free energy (equipartition)  =      -58.354237 eV
  - T*S       (equipartition)  =        0.356035 eV
  Uvib        (equipartition)  =        0.206816 eV
  Mean kinetic energy          =        0.824891 eV
  Heat capacity - const volume =        0.000014 eV/K
                               =        1.392999 J/(mol.K)
--------------------------------------------------------------------------------
  Phonon properties (per mole of unit cells): Temperature =    110.000 K
--------------------------------------------------------------------------------
  Zero point energy            =        1.649438 eV
  Entropy                      =        0.000006 eV/K
                               =        0.590449 J/(mol.K)
  Helmholtz free-energy        =      -57.267809 eV
                               =    -5525.467632 kJmol-1
  Free energy (equipartition)  =      -58.319635 eV
  - T*S       (equipartition)  =        0.369955 eV
  Uvib        (equipartition)  =        0.227498 eV
  Mean kinetic energy          =        0.824976 eV
  Heat capacity - const volume =        0.000020 eV/K
                               =        1.901137 J/(mol.K)
--------------------------------------------------------------------------------
  Phonon properties (per mole of unit cells): Temperature =    120.000 K
--------------------------------------------------------------------------------
  Zero point energy            =        1.649438 eV
  Entropy                      =        0.000008 eV/K
                               =        0.781969 J/(mol.K)
  Helmholtz free-energy        =      -57.267879 eV
                               =    -5525.474462 kJmol-1
  Free energy (equipartition)  =      -58.286916 eV
  - T*S       (equipartition)  =        0.381993 eV
  Uvib        (equipartition)  =        0.248179 eV
  Mean kinetic energy          =        0.825091 eV
  Heat capacity - const volume =        0.000026 eV/K
                               =        2.531754 J/(mol.K)
--------------------------------------------------------------------------------
  Phonon properties (per mole of unit cells): Temperature =    130.000 K
--------------------------------------------------------------------------------
  Zero point energy            =        1.649438 eV
  Entropy                      =        0.000011 eV/K
                               =        1.013936 J/(mol.K)
  Helmholtz free-energy        =      -57.267972 eV
                               =    -5525.483406 kJmol-1
  Free energy (equipartition)  =      -58.255922 eV
  - T*S       (equipartition)  =        0.392306 eV
  Uvib        (equipartition)  =        0.268861 eV
  Mean kinetic energy          =        0.825241 eV
  Heat capacity - const volume =        0.000034 eV/K
                               =        3.298164 J/(mol.K)
--------------------------------------------------------------------------------
  Phonon properties (per mole of unit cells): Temperature =    140.000 K
--------------------------------------------------------------------------------
  Zero point energy            =        1.649438 eV
  Entropy                      =        0.000013 eV/K
                               =        1.290835 J/(mol.K)
  Helmholtz free-energy        =      -57.268091 eV
                               =    -5525.494890 kJmol-1
  Free energy (equipartition)  =      -58.226520 eV
  - T*S       (equipartition)  =        0.401026 eV
  Uvib        (equipartition)  =        0.289542 eV
  Mean kinetic energy          =        0.825435 eV
  Heat capacity - const volume =        0.000044 eV/K
                               =        4.211127 J/(mol.K)
--------------------------------------------------------------------------------
  Phonon properties (per mole of unit cells): Temperature =    150.000 K
--------------------------------------------------------------------------------
  Zero point energy            =        1.649438 eV
  Entropy                      =        0.000017 eV/K
                               =        1.616864 J/(mol.K)
  Helmholtz free-energy        =      -57.268241 eV
                               =    -5525.509386 kJmol-1
  Free energy (equipartition)  =      -58.198597 eV
  - T*S       (equipartition)  =        0.408267 eV
  Uvib        (equipartition)  =        0.310224 eV
  Mean kinetic energy          =        0.825680 eV
  Heat capacity - const volume =        0.000055 eV/K
                               =        5.278469 J/(mol.K)
--------------------------------------------------------------------------------
  Phonon properties (per mole of unit cells): Temperature =    160.000 K
--------------------------------------------------------------------------------
  Zero point energy            =        1.649438 eV
  Entropy                      =        0.000021 eV/K
                               =        1.995819 J/(mol.K)
  Helmholtz free-energy        =      -57.268428 eV
                               =    -5525.527404 kJmol-1
  Free energy (equipartition)  =      -58.172054 eV
  - T*S       (equipartition)  =        0.414129 eV
  Uvib        (equipartition)  =        0.330906 eV
  Mean kinetic energy          =        0.825985 eV
  Heat capacity - const volume =        0.000067 eV/K
                               =        6.505009 J/(mol.K)
--------------------------------------------------------------------------------
  Phonon properties (per mole of unit cells): Temperature =    170.000 K
--------------------------------------------------------------------------------
  Zero point energy            =        1.649438 eV
  Entropy                      =        0.000025 eV/K
                               =        2.431007 J/(mol.K)
  Helmholtz free-energy        =      -57.268657 eV
                               =    -5525.549490 kJmol-1
  Free energy (equipartition)  =      -58.146804 eV
  - T*S       (equipartition)  =        0.418697 eV
  Uvib        (equipartition)  =        0.351587 eV
  Mean kinetic energy          =        0.826357 eV
  Heat capacity - const volume =        0.000082 eV/K
                               =        7.892692 J/(mol.K)
--------------------------------------------------------------------------------
  Phonon properties (per mole of unit cells): Temperature =    180.000 K
--------------------------------------------------------------------------------
  Zero point energy            =        1.649438 eV
  Entropy                      =        0.000030 eV/K
                               =        2.925205 J/(mol.K)
  Helmholtz free-energy        =      -57.268934 eV
                               =    -5525.576221 kJmol-1
  Free energy (equipartition)  =      -58.122771 eV
  - T*S       (equipartition)  =        0.422048 eV
  Uvib        (equipartition)  =        0.372269 eV
  Mean kinetic energy          =        0.826806 eV
  Heat capacity - const volume =        0.000098 eV/K
                               =        9.440831 J/(mol.K)
--------------------------------------------------------------------------------
  Phonon properties (per mole of unit cells): Temperature =    190.000 K
--------------------------------------------------------------------------------
  Zero point energy            =        1.649438 eV
  Entropy                      =        0.000036 eV/K
                               =        3.480637 J/(mol.K)
  Helmholtz free-energy        =      -57.269266 eV
                               =    -5525.608198 kJmol-1
  Free energy (equipartition)  =      -58.099888 eV
  - T*S       (equipartition)  =        0.424249 eV
  Uvib        (equipartition)  =        0.392951 eV
  Mean kinetic energy          =        0.827338 eV
  Heat capacity - const volume =        0.000116 eV/K
                               =       11.146404 J/(mol.K)
--------------------------------------------------------------------------------
  Phonon properties (per mole of unit cells): Temperature =    200.000 K
--------------------------------------------------------------------------------
  Zero point energy            =        1.649438 eV
  Entropy                      =        0.000042 eV/K
                               =        4.098978 J/(mol.K)
  Helmholtz free-energy        =      -57.269658 eV
                               =    -5525.646044 kJmol-1
  Free energy (equipartition)  =      -58.078095 eV
  - T*S       (equipartition)  =        0.425361 eV
  Uvib        (equipartition)  =        0.413632 eV
  Mean kinetic energy          =        0.827963 eV
  Heat capacity - const volume =        0.000135 eV/K
                               =       13.004353 J/(mol.K)
--------------------------------------------------------------------------------
  Phonon properties (per mole of unit cells): Temperature =    210.000 K
--------------------------------------------------------------------------------
  Zero point energy            =        1.649438 eV
  Entropy                      =        0.000050 eV/K
                               =        4.781365 J/(mol.K)
  Helmholtz free-energy        =      -57.270117 eV
                               =    -5525.690392 kJmol-1
  Free energy (equipartition)  =      -58.057335 eV
  - T*S       (equipartition)  =        0.425439 eV
  Uvib        (equipartition)  =        0.434314 eV
  Mean kinetic energy          =        0.828689 eV
  Heat capacity - const volume =        0.000156 eV/K
                               =       15.007887 J/(mol.K)
--------------------------------------------------------------------------------
  Phonon properties (per mole of unit cells): Temperature =    220.000 K
--------------------------------------------------------------------------------
  Zero point energy            =        1.649438 eV
  Entropy                      =        0.000057 eV/K
                               =        5.528428 J/(mol.K)
  Helmholtz free-energy        =      -57.270651 eV
                               =    -5525.741886 kJmol-1
  Free energy (equipartition)  =      -58.037561 eV
  - T*S       (equipartition)  =        0.424532 eV
  Uvib        (equipartition)  =        0.454995 eV
  Mean kinetic energy          =        0.829521 eV
  Heat capacity - const volume =        0.000178 eV/K
                               =       17.148774 J/(mol.K)
--------------------------------------------------------------------------------
  Phonon properties (per mole of unit cells): Temperature =    230.000 K
--------------------------------------------------------------------------------
  Zero point energy            =        1.649438 eV
  Entropy                      =        0.000066 eV/K
                               =        6.340319 J/(mol.K)
  Helmholtz free-energy        =      -57.271266 eV
                               =    -5525.801176 kJmol-1
  Free energy (equipartition)  =      -58.018727 eV
  - T*S       (equipartition)  =        0.422684 eV
  Uvib        (equipartition)  =        0.475677 eV
  Mean kinetic energy          =        0.830468 eV
  Heat capacity - const volume =        0.000201 eV/K
                               =       19.417615 J/(mol.K)
--------------------------------------------------------------------------------
  Phonon properties (per mole of unit cells): Temperature =    240.000 K
--------------------------------------------------------------------------------
  Zero point energy            =        1.649438 eV
  Entropy                      =        0.000075 eV/K
                               =        7.216751 J/(mol.K)
  Helmholtz free-energy        =      -57.271968 eV
                               =    -5525.868908 kJmol-1
  Free energy (equipartition)  =      -58.000793 eV
  - T*S       (equipartition)  =        0.419937 eV
  Uvib        (equipartition)  =        0.496359 eV
  Mean kinetic energy          =        0.831536 eV
  Heat capacity - const volume =        0.000226 eV/K
                               =       21.804115 J/(mol.K)
--------------------------------------------------------------------------------
  Phonon properties (per mole of unit cells): Temperature =    250.000 K
--------------------------------------------------------------------------------
  Zero point energy            =        1.649438 eV
  Entropy                      =        0.000085 eV/K
                               =        8.157038 J/(mol.K)
  Helmholtz free-energy        =      -57.272764 eV
                               =    -5525.945724 kJmol-1
  Free energy (equipartition)  =      -57.983720 eV
  - T*S       (equipartition)  =        0.416328 eV
  Uvib        (equipartition)  =        0.517040 eV
  Mean kinetic energy          =        0.832730 eV
  Heat capacity - const volume =        0.000252 eV/K
                               =       24.297332 J/(mol.K)
--------------------------------------------------------------------------------
  Phonon properties (per mole of unit cells): Temperature =    260.000 K
--------------------------------------------------------------------------------
  Zero point energy            =        1.649438 eV
  Entropy                      =        0.000095 eV/K
                               =        9.160135 J/(mol.K)
  Helmholtz free-energy        =      -57.273661 eV
                               =    -5526.032258 kJmol-1
  Free energy (equipartition)  =      -57.967475 eV
  - T*S       (equipartition)  =        0.411891 eV
  Uvib        (equipartition)  =        0.537722 eV
  Mean kinetic energy          =        0.834056 eV
  Heat capacity - const volume =        0.000279 eV/K
                               =       26.885906 J/(mol.K)
--------------------------------------------------------------------------------
  Phonon properties (per mole of unit cells): Temperature =    270.000 K
--------------------------------------------------------------------------------
  Zero point energy            =        1.649438 eV
  Entropy                      =        0.000106 eV/K
                               =       10.224683 J/(mol.K)
  Helmholtz free-energy        =      -57.274665 eV
                               =    -5526.129132 kJmol-1
  Free energy (equipartition)  =      -57.952026 eV
  - T*S       (equipartition)  =        0.406659 eV
  Uvib        (equipartition)  =        0.558403 eV
  Mean kinetic energy          =        0.835518 eV
  Heat capacity - const volume =        0.000306 eV/K
                               =       29.558283 J/(mol.K)
--------------------------------------------------------------------------------
  Phonon properties (per mole of unit cells): Temperature =    280.000 K
--------------------------------------------------------------------------------
  Zero point energy            =        1.649438 eV
  Entropy                      =        0.000118 eV/K
                               =       11.349052 J/(mol.K)
  Helmholtz free-energy        =      -57.275782 eV
                               =    -5526.236951 kJmol-1
  Free energy (equipartition)  =      -57.937343 eV
  - T*S       (equipartition)  =        0.400660 eV
  Uvib        (equipartition)  =        0.579085 eV
  Mean kinetic energy          =        0.837121 eV
  Heat capacity - const volume =        0.000335 eV/K
                               =       32.302894 J/(mol.K)
--------------------------------------------------------------------------------
  Phonon properties (per mole of unit cells): Temperature =    290.000 K
--------------------------------------------------------------------------------
  Zero point energy            =        1.649438 eV
  Entropy                      =        0.000130 eV/K
                               =       12.531377 J/(mol.K)
  Helmholtz free-energy        =      -57.277019 eV
                               =    -5526.356306 kJmol-1
  Free energy (equipartition)  =      -57.923399 eV
  - T*S       (equipartition)  =        0.393923 eV
  Uvib        (equipartition)  =        0.599767 eV
  Mean kinetic energy          =        0.838867 eV
  Heat capacity - const volume =        0.000364 eV/K
                               =       35.108333 J/(mol.K)
--------------------------------------------------------------------------------
  Phonon properties (per mole of unit cells): Temperature =    300.000 K
--------------------------------------------------------------------------------
  Zero point energy            =        1.649438 eV
  Entropy                      =        0.000143 eV/K
                               =       13.769602 J/(mol.K)
  Helmholtz free-energy        =      -57.278382 eV
                               =    -5526.487765 kJmol-1
  Free energy (equipartition)  =      -57.910168 eV
  - T*S       (equipartition)  =        0.386472 eV
  Uvib        (equipartition)  =        0.620448 eV
  Mean kinetic energy          =        0.840760 eV
  Heat capacity - const volume =        0.000393 eV/K
                               =       37.963492 J/(mol.K)
--------------------------------------------------------------------------------

  Time to end of properties =      17.1185 seconds


  Peak dynamic memory used =       1.93 MB 


  Timing analysis for GULP :

--------------------------------------------------------------------------------
  Task / Subroutine                                          Time (Seconds)
--------------------------------------------------------------------------------
  Calculation of real space energy and derivatives                0.0058
  Calculation of Brenner energy and derivatives                  16.7477
  Calculation of phonons                                         17.0412
  Calculation of matrix inversion                                 0.0001
  Disk read/write operations to scratch files                     0.0664
--------------------------------------------------------------------------------
  Total CPU time                                                 17.1186
--------------------------------------------------------------------------------


  Job Finished at 09:36.59 31st July       2020                               

