********************************************************************************
*                       GENERAL UTILITY LATTICE PROGRAM                        *
*                                 Julian Gale                                  *
*                       Curtin Institute for Computation                       *
*                    School of Molecular and Life Sciences                     *
*                    Curtin University, Western Australia                      *
********************************************************************************
* Version = 5.2.0 * Last modified =  17th December 2019                        *
********************************************************************************
*  optimise     - perform optimisation run                                     *
*  conv         - constant volume calculation                                  *
*  isotropic    - only isotropic cell expansion to be allowed                  *
*  lbfgs        - use limited memory BFGS update                               *
********************************************************************************
* ASE calculation                                                              *
********************************************************************************


  Job Started  at 16:20.11 12th August     2020                               

  Number of CPUs =     1


  Total number of configurations input =      1

********************************************************************************
*  Input for Configuration =   1                                               *
********************************************************************************

  Formula = C64                                                         

  Number of irreducible atoms/shells =      64


  Total number atoms/shells =      64

  Dimensionality = 3               :  Bulk   



  Cartesian lattice vectors (Angstroms) :

        7.551803    0.000000    0.000000
        0.000000    7.551803    0.000000
        0.000000    0.000000    7.551803

  Cell parameters (Angstroms/Degrees):

  a =       7.5518    alpha =  90.0000
  b =       7.5518    beta  =  90.0000
  c =       7.5518    gamma =  90.0000

  Initial cell volume =         430.677275 Angs**3

  Temperature of configuration =   0.00     K 

  Pressure of configuration =         0.000 GPa 

  Fractional coordinates of asymmetric unit :

--------------------------------------------------------------------------------
   No.  Atomic       x           y          z         Charge      Occupancy
        Label      (Frac)      (Frac)     (Frac)        (e)         (Frac)  
--------------------------------------------------------------------------------
      1 C     c    0.082860    0.546420    0.420470     0.00000    1.000000    
      2 C     c    0.300470 *  0.098480 *  0.158050 *   0.00000    1.000000    
      3 C     c    0.135430 *  0.397320 *  0.321400 *   0.00000    1.000000    
      4 C     c    0.905490 *  0.925920 *  0.500530 *   0.00000    1.000000    
      5 C     c    0.496470 *  0.888330 *  0.033250 *   0.00000    1.000000    
      6 C     c    0.816780 *  0.441270 *  0.290230 *   0.00000    1.000000    
      7 C     c    0.945770 *  0.607820 *  0.761780 *   0.00000    1.000000    
      8 C     c    0.840320 *  0.519590 *  0.629820 *   0.00000    1.000000    
      9 C     c    0.152890 *  0.348160 *  0.688790 *   0.00000    1.000000    
     10 C     c    0.417360 *  0.733360 *  0.168120 *   0.00000    1.000000    
     11 C     c    0.912950 *  0.222370 *  0.789680 *   0.00000    1.000000    
     12 C     c    0.594660 *  0.873970 *  0.593910 *   0.00000    1.000000    
     13 C     c    0.450710 *  0.212820 *  0.666970 *   0.00000    1.000000    
     14 C     c    0.222920 *  0.959920 *  0.855440 *   0.00000    1.000000    
     15 C     c    0.544790 *  0.575680 *  0.447490 *   0.00000    1.000000    
     16 C     c    0.011880 *  0.923390 *  0.168010 *   0.00000    1.000000    
     17 C     c    0.170450 *  0.793090 *  0.921890 *   0.00000    1.000000    
     18 C     c    0.324040 *  0.692350 *  0.651930 *   0.00000    1.000000    
     19 C     c    0.762670 *  0.347470 *  0.713160 *   0.00000    1.000000    
     20 C     c    0.064920 *  0.226020 *  0.316700 *   0.00000    1.000000    
     21 C     c    0.939020 *  0.137230 *  0.452960 *   0.00000    1.000000    
     22 C     c    0.882990 *  0.573160 *  0.439880 *   0.00000    1.000000    
     23 C     c    0.483380 *  0.799280 *  0.721410 *   0.00000    1.000000    
     24 C     c    0.800220 *  0.235140 *  0.302270 *   0.00000    1.000000    
     25 C     c    0.720270 *  0.151940 *  0.111960 *   0.00000    1.000000    
     26 C     c    0.529470 *  0.570940 *  0.123160 *   0.00000    1.000000    
     27 C     c    0.623950 *  0.264260 *  0.582370 *   0.00000    1.000000    
     28 C     c    0.661500 *  0.958000 *  0.159510 *   0.00000    1.000000    
     29 C     c    0.510700 *  0.875200 *  0.296820 *   0.00000    1.000000    
     30 C     c    0.368170 *  0.034740 *  0.972170 *   0.00000    1.000000    
     31 C     c    0.838010 *  0.084970 *  0.940300 *   0.00000    1.000000    
     32 C     c    0.887020 *  0.741300 *  0.878490 *   0.00000    1.000000    
     33 C     c    0.329920 *  0.369220 *  0.625000 *   0.00000    1.000000    
     34 C     c    0.234910 *  0.665930 *  0.237200 *   0.00000    1.000000    
     35 C     c    0.097820 *  0.482080 *  0.828230 *   0.00000    1.000000    
     36 C     c    0.357300 *  0.059430 *  0.561620 *   0.00000    1.000000    
     37 C     c    0.205560 *  0.709380 *  0.458790 *   0.00000    1.000000    
     38 C     c    0.577830 *  0.283650 *  0.000200 *   0.00000    1.000000    
     39 C     c    0.096250 *  0.111340 *  0.154850 *   0.00000    1.000000    
     40 C     c    0.783300 *  0.916310 *  0.845700 *   0.00000    1.000000    
     41 C     c    0.406360 *  0.526900 *  0.561540 *   0.00000    1.000000    
     42 C     c    0.094690 *  0.865200 *  0.548260 *   0.00000    1.000000    
     43 C     c    0.072230 *  0.412820 *  0.017680 *   0.00000    1.000000    
     44 C     c    0.238240 *  0.455410 *  0.151960 *   0.00000    1.000000    
     45 C     c    0.203740 *  0.654420 *  0.807420 *   0.00000    1.000000    
     46 C     c    0.918830 *  0.504530 *  0.126220 *   0.00000    1.000000    
     47 C     c    0.828050 *  0.833420 *  0.193820 *   0.00000    1.000000    
     48 C     c    0.017560 *  0.212950 *  0.992570 *   0.00000    1.000000    
     49 C     c    0.812710 *  0.769570 *  0.389370 *   0.00000    1.000000    
     50 C     c    0.835940 *  0.673740 *  0.062610 *   0.00000    1.000000    
     51 C     c    0.185060 *  0.009430 *  0.659170 *   0.00000    1.000000    
     52 C     c    0.457630 *  0.216810 *  0.274090 *   0.00000    1.000000    
     53 C     c    0.431410 *  0.378370 *  0.134190 *   0.00000    1.000000    
     54 C     c    0.387750 *  0.028060 *  0.356610 *   0.00000    1.000000    
     55 C     c    0.620120 *  0.243470 *  0.401380 *   0.00000    1.000000    
     56 C     c    0.467290 *  0.174440 *  0.869580 *   0.00000    1.000000    
     57 C     c    0.671060 *  0.425450 *  0.885090 *   0.00000    1.000000    
     58 C     c    0.760010 *  0.942560 *  0.648250 *   0.00000    1.000000    
     59 C     c    0.130720 *  0.786950 *  0.105540 *   0.00000    1.000000    
     60 C     c    0.614630 *  0.488110 *  0.292770 *   0.00000    1.000000    
     61 C     c    0.609350 *  0.770250 *  0.432430 *   0.00000    1.000000    
     62 C     c    0.047380 *  0.170810 *  0.640760 *   0.00000    1.000000    
     63 C     c    0.654620 *  0.612400 *  0.969500 *   0.00000    1.000000    
     64 C     c    0.597000 *  0.795710 *  0.888070 *   0.00000    1.000000    
--------------------------------------------------------------------------------


  Constraints : 

--------------------------------------------------------------------------------
  Constraint no.      Unconstrained     Constrained    Coefficient    Offset
                         Variable         Variable
--------------------------------------------------------------------------------
           1              Strain 1        Strain 2       1.00000      0.0000
           2              Strain 1        Strain 3       1.00000      0.0000
--------------------------------------------------------------------------------


********************************************************************************
*  General input information                                                   *
********************************************************************************

  Species output for all configurations : 

--------------------------------------------------------------------------------
  Species    Type    Atomic    Atomic    Charge       Radii (Angs)     Library
                     Number     Mass       (e)     Cova   Ionic  VDW   Symbol
--------------------------------------------------------------------------------
    C        Core        6      12.01   0.000000   0.770  0.000  1.530          
--------------------------------------------------------------------------------


  Lattice summation method               =    Ewald          (3-D)
                                         =    Parry          (2-D)
                                         =    Saunders et al (1-D)
  Accuracy factor for lattice sums       =   12.000


  Analytic derivatives to be used

  Time limit = Infinity

  Maximum range for interatomic potentials =    100000.000000 Angstroms

  Brenner et al 2002 potential to be used with explicit splines for P


********************************************************************************
*  Output for configuration   1                                                *
********************************************************************************


  Components of energy : 

--------------------------------------------------------------------------------
  Interatomic potentials     =           0.00000000 eV    
  Brenner potentials         =        -425.08860005 eV    
  Monopole - monopole (real) =           0.00000000 eV    
  Monopole - monopole (recip)=           0.00000000 eV    
  Monopole - monopole (total)=           0.00000000 eV    
--------------------------------------------------------------------------------
  Total lattice energy       =        -425.08860005 eV    
--------------------------------------------------------------------------------
  Total lattice energy       =          -41014.5518 kJ/(mole unit cells)
--------------------------------------------------------------------------------


  Number of variables =      189

  Maximum number of calculations  =          2000
  Maximum Hessian update interval =            10
  Maximum step size               =   1.000000000
  Maximum parameter tolerance     =   0.000010000
  Maximum function  tolerance     =   0.000010000
  Maximum gradient  tolerance     =   0.001000000
  Maximum gradient  component     =   0.010000000

  Maximum LM gradient tolerance   =   0.900000000
  Symmetry not applied to optimisation

  Limited Memory BFGS to be used of order   10

  BFGS hessian update to be used

  Lower half triangular hessian to be used

  Start of bulk optimisation :

  Cycle:      0 Energy:      -425.088600  Gnorm:      0.193905  CPU:    0.023
  Cycle:      1 Energy:      -425.102958  Gnorm:      0.162358  CPU:    0.031
  Cycle:      2 Energy:      -425.141696  Gnorm:      0.058341  CPU:    0.034
  Cycle:      3 Energy:      -425.146970  Gnorm:      0.038637  CPU:    0.042
  Cycle:      4 Energy:      -425.151762  Gnorm:      0.051379  CPU:    0.059
  Cycle:      5 Energy:      -425.155837  Gnorm:      0.030464  CPU:    0.066
  Cycle:      6 Energy:      -425.159406  Gnorm:      0.026722  CPU:    0.072
  Cycle:      7 Energy:      -425.162096  Gnorm:      0.020982  CPU:    0.075
  Cycle:      8 Energy:      -425.164607  Gnorm:      0.015717  CPU:    0.089
  Cycle:      9 Energy:      -425.165819  Gnorm:      0.029645  CPU:    0.101
  Cycle:     10 Energy:      -425.167086  Gnorm:      0.010896  CPU:    0.107
  Cycle:     11 Energy:      -425.167563  Gnorm:      0.009363  CPU:    0.112
  Cycle:     12 Energy:      -425.168218  Gnorm:      0.009660  CPU:    0.116
  Cycle:     13 Energy:      -425.168478  Gnorm:      0.012594  CPU:    0.135
  Cycle:     14 Energy:      -425.168807  Gnorm:      0.007023  CPU:    0.144
  Cycle:     15 Energy:      -425.169058  Gnorm:      0.004950  CPU:    0.149
  Cycle:     16 Energy:      -425.169258  Gnorm:      0.006196  CPU:    0.153
  Cycle:     17 Energy:      -425.169355  Gnorm:      0.007756  CPU:    0.157
  Cycle:     18 Energy:      -425.169467  Gnorm:      0.003457  CPU:    0.160
  Cycle:     19 Energy:      -425.169531  Gnorm:      0.003013  CPU:    0.177
  Cycle:     20 Energy:      -425.169600  Gnorm:      0.003456  CPU:    0.185
  Cycle:     21 Energy:      -425.169654  Gnorm:      0.005449  CPU:    0.193
  Cycle:     22 Energy:      -425.169725  Gnorm:      0.003002  CPU:    0.214
  Cycle:     23 Energy:      -425.169778  Gnorm:      0.002393  CPU:    0.220
  Cycle:     24 Energy:      -425.169841  Gnorm:      0.003163  CPU:    0.224
  Cycle:     25 Energy:      -425.169867  Gnorm:      0.006088  CPU:    0.228
  Cycle:     26 Energy:      -425.169922  Gnorm:      0.002637  CPU:    0.232
  Cycle:     27 Energy:      -425.169953  Gnorm:      0.002072  CPU:    0.249
  Cycle:     28 Energy:      -425.169989  Gnorm:      0.002661  CPU:    0.259
  Cycle:     29 Energy:      -425.170026  Gnorm:      0.005752  CPU:    0.263
  Cycle:     30 Energy:      -425.170076  Gnorm:      0.002949  CPU:    0.267
  Cycle:     31 Energy:      -425.170117  Gnorm:      0.002280  CPU:    0.271
  Cycle:     32 Energy:      -425.170154  Gnorm:      0.003189  CPU:    0.285
  Cycle:     33 Energy:      -425.170197  Gnorm:      0.004724  CPU:    0.296
  Cycle:     34 Energy:      -425.170242  Gnorm:      0.002648  CPU:    0.302
  Cycle:     35 Energy:      -425.170290  Gnorm:      0.002542  CPU:    0.306
  Cycle:     36 Energy:      -425.170330  Gnorm:      0.002943  CPU:    0.309
  Cycle:     37 Energy:      -425.170384  Gnorm:      0.006626  CPU:    0.321
  Cycle:     38 Energy:      -425.170453  Gnorm:      0.002701  CPU:    0.336
  Cycle:     39 Energy:      -425.170484  Gnorm:      0.002150  CPU:    0.341
  Cycle:     40 Energy:      -425.170533  Gnorm:      0.002542  CPU:    0.346
  Cycle:     41 Energy:      -425.170574  Gnorm:      0.005172  CPU:    0.349
  Cycle:     42 Energy:      -425.170629  Gnorm:      0.003118  CPU:    0.353
  Cycle:     43 Energy:      -425.170680  Gnorm:      0.002274  CPU:    0.374
  Cycle:     44 Energy:      -425.170722  Gnorm:      0.002809  CPU:    0.380
  Cycle:     45 Energy:      -425.170753  Gnorm:      0.004671  CPU:    0.384
  Cycle:     46 Energy:      -425.170792  Gnorm:      0.002248  CPU:    0.388
  Cycle:     47 Energy:      -425.170817  Gnorm:      0.001777  CPU:    0.392
  Cycle:     48 Energy:      -425.170837  Gnorm:      0.001779  CPU:    0.395
  Cycle:     49 Energy:      -425.170849  Gnorm:      0.002938  CPU:    0.416
  Cycle:     50 Energy:      -425.170867  Gnorm:      0.001666  CPU:    0.423
  Cycle:     51 Energy:      -425.170881  Gnorm:      0.001264  CPU:    0.427
  Cycle:     52 Energy:      -425.170895  Gnorm:      0.001994  CPU:    0.432
  Cycle:     53 Energy:      -425.170904  Gnorm:      0.001787  CPU:    0.445
  Cycle:     54 Energy:      -425.170912  Gnorm:      0.001134  CPU:    0.458
  Cycle:     55 Energy:      -425.170922  Gnorm:      0.001025  CPU:    0.463
  Cycle:     56 Energy:      -425.170928  Gnorm:      0.001597  CPU:    0.467
  Cycle:     57 Energy:      -425.170936  Gnorm:      0.001114  CPU:    0.470
  Cycle:     58 Energy:      -425.170944  Gnorm:      0.001034  CPU:    0.474
  Cycle:     59 Energy:      -425.170951  Gnorm:      0.001819  CPU:    0.494
  Cycle:     60 Energy:      -425.170958  Gnorm:      0.001068  CPU:    0.501
  Cycle:     61 Energy:      -425.170964  Gnorm:      0.001018  CPU:    0.506
  Cycle:     62 Energy:      -425.170971  Gnorm:      0.001306  CPU:    0.510
  Cycle:     63 Energy:      -425.170977  Gnorm:      0.001542  CPU:    0.517
  Cycle:     64 Energy:      -425.170983  Gnorm:      0.000867  CPU:    0.535
  Cycle:     65 Energy:      -425.170988  Gnorm:      0.000867  CPU:    0.541
  Cycle:     66 Energy:      -425.170992  Gnorm:      0.000959  CPU:    0.545
  Cycle:     67 Energy:      -425.170997  Gnorm:      0.001560  CPU:    0.549
  Cycle:     68 Energy:      -425.171003  Gnorm:      0.000828  CPU:    0.552
  Cycle:     69 Energy:      -425.171007  Gnorm:      0.000946  CPU:    0.555
  Cycle:     70 Energy:      -425.171016  Gnorm:      0.001152  CPU:    0.567
  Cycle:     71 Energy:      -425.171032  Gnorm:      0.001853  CPU:    0.579
  Cycle:     72 Energy:      -425.171042  Gnorm:      0.001948  CPU:    0.587
  Cycle:     73 Energy:      -425.171055  Gnorm:      0.001044  CPU:    0.590
  Cycle:     74 Energy:      -425.171065  Gnorm:      0.001216  CPU:    0.593
  Cycle:     75 Energy:      -425.171072  Gnorm:      0.002690  CPU:    0.596
  Cycle:     76 Energy:      -425.171084  Gnorm:      0.001689  CPU:    0.613
  Cycle:     77 Energy:      -425.171101  Gnorm:      0.001334  CPU:    0.622
  Cycle:     78 Energy:      -425.171113  Gnorm:      0.001614  CPU:    0.627
  Cycle:     79 Energy:      -425.171117  Gnorm:      0.003885  CPU:    0.631
  Cycle:     80 Energy:      -425.171134  Gnorm:      0.001243  CPU:    0.635
  Cycle:     81 Energy:      -425.171141  Gnorm:      0.000928  CPU:    0.638
  Cycle:     82 Energy:      -425.171148  Gnorm:      0.001005  CPU:    0.641
  Cycle:     83 Energy:      -425.171156  Gnorm:      0.000895  CPU:    0.661
  Cycle:     84 Energy:      -425.171158  Gnorm:      0.001189  CPU:    0.668
  Cycle:     85 Energy:      -425.171161  Gnorm:      0.000561  CPU:    0.672
  Cycle:     86 Energy:      -425.171163  Gnorm:      0.000502  CPU:    0.676
  Cycle:     87 Energy:      -425.171166  Gnorm:      0.000823  CPU:    0.679
  Cycle:     88 Energy:      -425.171167  Gnorm:      0.000596  CPU:    0.703
  Cycle:     89 Energy:      -425.171168  Gnorm:      0.000383  CPU:    0.707
  Cycle:     90 Energy:      -425.171169  Gnorm:      0.000340  CPU:    0.712
  Cycle:     91 Energy:      -425.171170  Gnorm:      0.000314  CPU:    0.715
  Cycle:     92 Energy:      -425.171170  Gnorm:      0.000532  CPU:    0.727
  Cycle:     93 Energy:      -425.171171  Gnorm:      0.000233  CPU:    0.742


  **** Optimisation achieved ****


  Final energy =    -425.17117094 eV
  Final Gnorm  =       0.00019365

  Components of energy : 

--------------------------------------------------------------------------------
  Interatomic potentials     =           0.00000000 eV    
  Brenner potentials         =        -425.17117094 eV    
  Monopole - monopole (real) =           0.00000000 eV    
  Monopole - monopole (recip)=           0.00000000 eV    
  Monopole - monopole (total)=           0.00000000 eV    
--------------------------------------------------------------------------------
  Total lattice energy       =        -425.17117094 eV    
--------------------------------------------------------------------------------
  Total lattice energy       =          -41022.5187 kJ/(mole unit cells)
--------------------------------------------------------------------------------

  Final fractional coordinates of atoms :

--------------------------------------------------------------------------------
   No.  Atomic        x           y          z          Radius
        Label       (Frac)      (Frac)     (Frac)       (Angs) 
--------------------------------------------------------------------------------
     1  C     c     0.082860    0.546420    0.420470    0.000000
     2  C     c     0.302569    0.097946    0.160114    0.000000
     3  C     c     0.134149    0.397679    0.321219    0.000000
     4  C     c     0.907273    0.926028    0.502712    0.000000
     5  C     c     0.498978    0.887666    0.035675    0.000000
     6  C     c     0.816602    0.440854    0.292957    0.000000
     7  C     c     0.946572    0.606355    0.764490    0.000000
     8  C     c     0.842372    0.518315    0.632174    0.000000
     9  C     c     0.155237    0.348031    0.691936    0.000000
    10  C     c     0.419433    0.733295    0.170140    0.000000
    11  C     c     0.914287    0.221126    0.791826    0.000000
    12  C     c     0.597510    0.870301    0.596438    0.000000
    13  C     c     0.452069    0.213174    0.668807    0.000000
    14  C     c     0.226448    0.959026    0.856625    0.000000
    15  C     c     0.545097    0.575868    0.448724    0.000000
    16  C     c     0.014410    0.922164    0.168921    0.000000
    17  C     c     0.173167    0.793020    0.922849    0.000000
    18  C     c     0.323662    0.691895    0.651775    0.000000
    19  C     c     0.763963    0.346710    0.715403    0.000000
    20  C     c     0.064740    0.226467    0.316566    0.000000
    21  C     c     0.940938    0.137675    0.454182    0.000000
    22  C     c     0.883885    0.572534    0.442350    0.000000
    23  C     c     0.485383    0.796369    0.723100    0.000000
    24  C     c     0.801443    0.234929    0.305671    0.000000
    25  C     c     0.722295    0.150905    0.114127    0.000000
    26  C     c     0.531030    0.571110    0.125479    0.000000
    27  C     c     0.624911    0.264016    0.584217    0.000000
    28  C     c     0.664129    0.956952    0.161193    0.000000
    29  C     c     0.513003    0.875147    0.297801    0.000000
    30  C     c     0.370710    0.033949    0.974160    0.000000
    31  C     c     0.839721    0.083613    0.941725    0.000000
    32  C     c     0.886327    0.738710    0.880796    0.000000
    33  C     c     0.331758    0.369586    0.628121    0.000000
    34  C     c     0.237045    0.665943    0.238853    0.000000
    35  C     c     0.099039    0.481913    0.830635    0.000000
    36  C     c     0.358753    0.060479    0.562552    0.000000
    37  C     c     0.206258    0.708504    0.459160    0.000000
    38  C     c     0.579113    0.283260    0.002081    0.000000
    39  C     c     0.098010    0.110754    0.156214    0.000000
    40  C     c     0.784564    0.914421    0.847785    0.000000
    41  C     c     0.407462    0.526627    0.563188    0.000000
    42  C     c     0.096860    0.865624    0.549166    0.000000
    43  C     c     0.072883    0.412451    0.020171    0.000000
    44  C     c     0.240182    0.456376    0.154510    0.000000
    45  C     c     0.202943    0.655070    0.807466    0.000000
    46  C     c     0.919289    0.503552    0.129186    0.000000
    47  C     c     0.830595    0.832415    0.195557    0.000000
    48  C     c     0.017739    0.212262    0.993910    0.000000
    49  C     c     0.814040    0.769302    0.391258    0.000000
    50  C     c     0.837061    0.672368    0.065206    0.000000
    51  C     c     0.187304    0.009379    0.660359    0.000000
    52  C     c     0.458996    0.216435    0.274717    0.000000
    53  C     c     0.433587    0.378951    0.136930    0.000000
    54  C     c     0.390327    0.028064    0.357244    0.000000
    55  C     c     0.621179    0.242951    0.403752    0.000000
    56  C     c     0.469014    0.173998    0.871727    0.000000
    57  C     c     0.672424    0.424825    0.887410    0.000000
    58  C     c     0.762053    0.938776    0.650535    0.000000
    59  C     c     0.133775    0.786923    0.106265    0.000000
    60  C     c     0.615376    0.488752    0.294660    0.000000
    61  C     c     0.610528    0.770023    0.433706    0.000000
    62  C     c     0.049301    0.171093    0.643236    0.000000
    63  C     c     0.655943    0.611506    0.972150    0.000000
    64  C     c     0.598542    0.794522    0.890337    0.000000
--------------------------------------------------------------------------------

  Final internal derivatives :

--------------------------------------------------------------------------------
   No.  Atomic          a             b             c           Radius
        Label          (eV)          (eV)          (eV)        (eV/Angs)
--------------------------------------------------------------------------------
      1 C     c       0.000000      0.000000      0.000000      0.000000
      2 C     c       0.005185      0.000107     -0.002828      0.000000
      3 C     c       0.002433      0.000720      0.002997      0.000000
      4 C     c       0.000726      0.002288     -0.001028      0.000000
      5 C     c       0.006056      0.002597     -0.007345      0.000000
      6 C     c      -0.003681      0.000564      0.000766      0.000000
      7 C     c      -0.000464     -0.002929     -0.000430      0.000000
      8 C     c      -0.000231      0.000231      0.000168      0.000000
      9 C     c      -0.001107     -0.003240      0.001299      0.000000
     10 C     c       0.000555     -0.000571     -0.000034      0.000000
     11 C     c       0.000822     -0.000425      0.003043      0.000000
     12 C     c      -0.001733     -0.000226     -0.000958      0.000000
     13 C     c       0.002482     -0.003148     -0.000308      0.000000
     14 C     c       0.000473     -0.001869     -0.000047      0.000000
     15 C     c       0.001966      0.003678      0.000415      0.000000
     16 C     c       0.002826      0.003055     -0.002321      0.000000
     17 C     c       0.001740     -0.000536     -0.000358      0.000000
     18 C     c      -0.000652      0.000007     -0.003300      0.000000
     19 C     c      -0.000871     -0.003372     -0.001513      0.000000
     20 C     c       0.004116     -0.000043     -0.000457      0.000000
     21 C     c      -0.001714     -0.004329      0.007313      0.000000
     22 C     c       0.001075      0.002983      0.000247      0.000000
     23 C     c      -0.002619      0.003660     -0.000266      0.000000
     24 C     c      -0.002171     -0.000850     -0.004667      0.000000
     25 C     c       0.001926     -0.003144     -0.000823      0.000000
     26 C     c       0.002032      0.003546     -0.002034      0.000000
     27 C     c       0.001018     -0.001665     -0.002557      0.000000
     28 C     c       0.002349     -0.003716      0.006194      0.000000
     29 C     c      -0.001742     -0.002386      0.002384      0.000000
     30 C     c       0.001216     -0.001722     -0.003648      0.000000
     31 C     c       0.002969     -0.005080      0.001476      0.000000
     32 C     c      -0.000204     -0.001431     -0.002087      0.000000
     33 C     c      -0.000019     -0.003542      0.000947      0.000000
     34 C     c       0.001088     -0.004118     -0.006346      0.000000
     35 C     c       0.000497     -0.000445     -0.000374      0.000000
     36 C     c       0.006334      0.000797     -0.000974      0.000000
     37 C     c       0.001043      0.002424      0.006993      0.000000
     38 C     c       0.004607     -0.004650      0.001051      0.000000
     39 C     c       0.001483     -0.001103     -0.003973      0.000000
     40 C     c      -0.003368      0.000386     -0.000884      0.000000
     41 C     c      -0.000024     -0.001802     -0.002192      0.000000
     42 C     c      -0.000848      0.000046     -0.005646      0.000000
     43 C     c      -0.001193      0.001390      0.000060      0.000000
     44 C     c      -0.000872      0.000363      0.002348      0.000000
     45 C     c       0.002323      0.000901     -0.001136      0.000000
     46 C     c       0.001205     -0.001063      0.002735      0.000000
     47 C     c       0.000497      0.002829     -0.003737      0.000000
     48 C     c       0.000685     -0.001964      0.002287      0.000000
     49 C     c      -0.000097      0.002143     -0.000779      0.000000
     50 C     c       0.001600     -0.001539     -0.000876      0.000000
     51 C     c       0.004096     -0.003335      0.000264      0.000000
     52 C     c       0.001014     -0.003449      0.003085      0.000000
     53 C     c       0.001528     -0.003493      0.002797      0.000000
     54 C     c       0.003103      0.002038     -0.005365      0.000000
     55 C     c       0.002919      0.002706     -0.003561      0.000000
     56 C     c       0.003895     -0.005484     -0.003610      0.000000
     57 C     c       0.003356     -0.000992     -0.003020      0.000000
     58 C     c      -0.001570     -0.002647     -0.001824      0.000000
     59 C     c       0.002606      0.001539     -0.000867      0.000000
     60 C     c      -0.001691      0.002641      0.000783      0.000000
     61 C     c      -0.003229      0.001472     -0.000678      0.000000
     62 C     c      -0.002461      0.000416     -0.002021      0.000000
     63 C     c       0.000527     -0.003209     -0.007053      0.000000
     64 C     c      -0.001169     -0.002684     -0.003229      0.000000
--------------------------------------------------------------------------------
  Maximum abs         0.006334      0.005484      0.007345      0.000000
--------------------------------------------------------------------------------


  Time to end of optimisation =       0.7477 seconds


  Peak dynamic memory used =       2.01 MB 


  Timing analysis for GULP :

--------------------------------------------------------------------------------
  Task / Subroutine                                          Time (Seconds)
--------------------------------------------------------------------------------
  Calculation of Brenner energy and derivatives                   0.7187
--------------------------------------------------------------------------------
  Total CPU time                                                  0.7478
--------------------------------------------------------------------------------


  CIF file written as opti_1.0050.cif


  Job Finished at 16:20.11 12th August     2020                               

