********************************************************************************
*                       GENERAL UTILITY LATTICE PROGRAM                        *
*                                 Julian Gale                                  *
*                       Curtin Institute for Computation                       *
*                    School of Molecular and Life Sciences                     *
*                    Curtin University, Western Australia                      *
********************************************************************************
* Version = 5.2.0 * Last modified =  17th December 2019                        *
********************************************************************************
*  optimise     - perform optimisation run                                     *
*  conv         - constant volume calculation                                  *
*  isotropic    - only isotropic cell expansion to be allowed                  *
*  conjugate    - use conjugate gradients minimiser                            *
********************************************************************************
* ASE calculation                                                              *
********************************************************************************


  Job Started  at 16:48.23 11th August     2020                               

  Number of CPUs =     1


  Total number of configurations input =      1

********************************************************************************
*  Input for Configuration =   1                                               *
********************************************************************************

  Formula = C64                                                         

  Number of irreducible atoms/shells =      64


  Total number atoms/shells =      64

  Dimensionality = 3               :  Bulk   



  Cartesian lattice vectors (Angstroms) :

        7.621541    0.000000    0.000000
        0.000000    7.621541    0.000000
        0.000000    0.000000    7.621541

  Cell parameters (Angstroms/Degrees):

  a =       7.6215    alpha =  90.0000
  b =       7.6215    beta  =  90.0000
  c =       7.6215    gamma =  90.0000

  Initial cell volume =         442.719214 Angs**3

  Temperature of configuration =   0.00     K 

  Pressure of configuration =         0.000 GPa 

  Fractional coordinates of asymmetric unit :

--------------------------------------------------------------------------------
   No.  Atomic       x           y          z         Charge      Occupancy
        Label      (Frac)      (Frac)     (Frac)        (e)         (Frac)  
--------------------------------------------------------------------------------
      1 C     c    0.025100    0.587150    0.365320     0.00000    1.000000    
      2 C     c    0.261960 *  0.102350 *  0.107880 *   0.00000    1.000000    
      3 C     c    0.100080 *  0.438460 *  0.267700 *   0.00000    1.000000    
      4 C     c    0.878960 *  0.966820 *  0.452800 *   0.00000    1.000000    
      5 C     c    0.476970 *  0.917400 *  0.988740 *   0.00000    1.000000    
      6 C     c    0.786990 *  0.447150 *  0.220140 *   0.00000    1.000000    
      7 C     c    0.923040 *  0.637520 *  0.717050 *   0.00000    1.000000    
      8 C     c    0.810170 *  0.554560 *  0.590260 *   0.00000    1.000000    
      9 C     c    0.131790 *  0.380040 *  0.638710 *   0.00000    1.000000    
     10 C     c    0.404270 *  0.764550 *  0.117610 *   0.00000    1.000000    
     11 C     c    0.889700 *  0.256980 *  0.746610 *   0.00000    1.000000    
     12 C     c    0.569910 *  0.900620 *  0.557400 *   0.00000    1.000000    
     13 C     c    0.425650 *  0.240870 *  0.632440 *   0.00000    1.000000    
     14 C     c    0.200020 *  0.983730 *  0.798590 *   0.00000    1.000000    
     15 C     c    0.523060 *  0.608540 *  0.406760 *   0.00000    1.000000    
     16 C     c    0.987720 *  0.938200 *  0.121300 *   0.00000    1.000000    
     17 C     c    0.134680 *  0.821550 *  0.858210 *   0.00000    1.000000    
     18 C     c    0.347750 *  0.690110 *  0.662490 *   0.00000    1.000000    
     19 C     c    0.738190 *  0.384180 *  0.683430 *   0.00000    1.000000    
     20 C     c    0.046450 *  0.258110 *  0.266300 *   0.00000    1.000000    
     21 C     c    0.936080 *  0.173340 *  0.419850 *   0.00000    1.000000    
     22 C     c    0.843300 *  0.615880 *  0.414970 *   0.00000    1.000000    
     23 C     c    0.478470 *  0.818970 *  0.689890 *   0.00000    1.000000    
     24 C     c    0.794120 *  0.296780 *  0.327440 *   0.00000    1.000000    
     25 C     c    0.669440 *  0.161030 *  0.017330 *   0.00000    1.000000    
     26 C     c    0.520340 *  0.604650 *  0.088340 *   0.00000    1.000000    
     27 C     c    0.606080 *  0.280540 *  0.571440 *   0.00000    1.000000    
     28 C     c    0.633890 *  0.989520 *  0.119020 *   0.00000    1.000000    
     29 C     c    0.479160 *  0.916090 *  0.251290 *   0.00000    1.000000    
     30 C     c    0.339390 *  0.056680 *  0.923070 *   0.00000    1.000000    
     31 C     c    0.810280 *  0.113020 *  0.884120 *   0.00000    1.000000    
     32 C     c    0.867950 *  0.767490 *  0.838090 *   0.00000    1.000000    
     33 C     c    0.307470 *  0.395320 *  0.575810 *   0.00000    1.000000    
     34 C     c    0.226620 *  0.687030 *  0.123410 *   0.00000    1.000000    
     35 C     c    0.071610 *  0.510040 *  0.779400 *   0.00000    1.000000    
     36 C     c    0.326190 *  0.102150 *  0.509580 *   0.00000    1.000000    
     37 C     c    0.121970 *  0.741100 *  0.423810 *   0.00000    1.000000    
     38 C     c    0.542650 *  0.314790 *  0.957100 *   0.00000    1.000000    
     39 C     c    0.063420 *  0.131370 *  0.109250 *   0.00000    1.000000    
     40 C     c    0.769650 *  0.942180 *  0.796810 *   0.00000    1.000000    
     41 C     c    0.392750 *  0.558230 *  0.534200 *   0.00000    1.000000    
     42 C     c    0.068180 *  0.896530 *  0.498720 *   0.00000    1.000000    
     43 C     c    0.001700 *  0.428840 *  0.954850 *   0.00000    1.000000    
     44 C     c    0.238470 *  0.500650 *  0.156150 *   0.00000    1.000000    
     45 C     c    0.195650 *  0.672080 *  0.768160 *   0.00000    1.000000    
     46 C     c    0.892950 *  0.519810 *  0.081840 *   0.00000    1.000000    
     47 C     c    0.799980 *  0.863030 *  0.155410 *   0.00000    1.000000    
     48 C     c    0.985830 *  0.222010 *  0.949250 *   0.00000    1.000000    
     49 C     c    0.775600 *  0.805360 *  0.350140 *   0.00000    1.000000    
     50 C     c    0.821570 *  0.700470 *  0.025360 *   0.00000    1.000000    
     51 C     c    0.158980 *  0.041530 *  0.607950 *   0.00000    1.000000    
     52 C     c    0.476040 *  0.263670 *  0.276630 *   0.00000    1.000000    
     53 C     c    0.434680 *  0.399100 *  0.122780 *   0.00000    1.000000    
     54 C     c    0.365660 *  0.086630 *  0.294640 *   0.00000    1.000000    
     55 C     c    0.624160 *  0.266270 *  0.391710 *   0.00000    1.000000    
     56 C     c    0.422290 *  0.211340 *  0.832230 *   0.00000    1.000000    
     57 C     c    0.643820 *  0.455720 *  0.850330 *   0.00000    1.000000    
     58 C     c    0.737120 *  0.967710 *  0.602660 *   0.00000    1.000000    
     59 C     c    0.099210 *  0.802470 *  0.043610 *   0.00000    1.000000    
     60 C     c    0.617730 *  0.536110 *  0.254430 *   0.00000    1.000000    
     61 C     c    0.572990 *  0.809180 *  0.390000 *   0.00000    1.000000    
     62 C     c    0.027000 *  0.208410 *  0.602340 *   0.00000    1.000000    
     63 C     c    0.640770 *  0.641500 *  0.932270 *   0.00000    1.000000    
     64 C     c    0.588560 *  0.824650 *  0.852350 *   0.00000    1.000000    
--------------------------------------------------------------------------------


  Constraints : 

--------------------------------------------------------------------------------
  Constraint no.      Unconstrained     Constrained    Coefficient    Offset
                         Variable         Variable
--------------------------------------------------------------------------------
           1              Strain 1        Strain 2       1.00000      0.0000
           2              Strain 1        Strain 3       1.00000      0.0000
--------------------------------------------------------------------------------


********************************************************************************
*  General input information                                                   *
********************************************************************************

  Species output for all configurations : 

--------------------------------------------------------------------------------
  Species    Type    Atomic    Atomic    Charge       Radii (Angs)     Library
                     Number     Mass       (e)     Cova   Ionic  VDW   Symbol
--------------------------------------------------------------------------------
    C        Core        6      12.01   0.000000   0.770  0.000  1.530          
--------------------------------------------------------------------------------


  Lattice summation method               =    Ewald          (3-D)
                                         =    Parry          (2-D)
                                         =    Saunders et al (1-D)
  Accuracy factor for lattice sums       =   12.000


  Analytic derivatives to be used

  Time limit = Infinity

  Maximum range for interatomic potentials =    100000.000000 Angstroms

  Brenner et al 2002 potential to be used with explicit splines for P


********************************************************************************
*  Output for configuration   1                                                *
********************************************************************************


  Components of energy : 

--------------------------------------------------------------------------------
  Interatomic potentials     =           0.00000000 eV    
  Brenner potentials         =        -428.26938689 eV    
  Monopole - monopole (real) =           0.00000000 eV    
  Monopole - monopole (recip)=           0.00000000 eV    
  Monopole - monopole (total)=           0.00000000 eV    
--------------------------------------------------------------------------------
  Total lattice energy       =        -428.26938689 eV    
--------------------------------------------------------------------------------
  Total lattice energy       =          -41321.4491 kJ/(mole unit cells)
--------------------------------------------------------------------------------


  Number of variables =      189

  Maximum number of calculations  =          2000
  Maximum Hessian update interval =            10
  Maximum step size               =   1.000000000
  Maximum parameter tolerance     =   0.000010000
  Maximum function  tolerance     =   0.000010000
  Maximum gradient  tolerance     =   0.001000000
  Maximum gradient  component     =   0.010000000

  Symmetry not applied to optimisation

  Conjugate gradient optimiser to be used

  Lower half triangular hessian to be used

  Start of bulk optimisation :

  Cycle:      0 Energy:      -428.269387  Gnorm:      0.138190  CPU:    0.028
  Cycle:      1 Energy:      -428.294098  Gnorm:      0.058429  CPU:    0.038
  Cycle:      2 Energy:      -428.304110  Gnorm:      0.051495  CPU:    0.064
  Cycle:      3 Energy:      -428.312578  Gnorm:      0.046963  CPU:    0.075
  Cycle:      4 Energy:      -428.317703  Gnorm:      0.039731  CPU:    0.113
  Cycle:      5 Energy:      -428.321205  Gnorm:      0.030549  CPU:    0.125
  Cycle:      6 Energy:      -428.324207  Gnorm:      0.031203  CPU:    0.149
  Cycle:      7 Energy:      -428.327108  Gnorm:      0.025816  CPU:    0.169
  Cycle:      8 Energy:      -428.329045  Gnorm:      0.022204  CPU:    0.189
  Cycle:      9 Energy:      -428.330636  Gnorm:      0.018287  CPU:    0.216
  Cycle:     10 Energy:      -428.331314  Gnorm:      0.008785  CPU:    0.231
  Cycle:     11 Energy:      -428.331680  Gnorm:      0.012178  CPU:    0.255
  Cycle:     12 Energy:      -428.332078  Gnorm:      0.011476  CPU:    0.271
  Cycle:     13 Energy:      -428.332450  Gnorm:      0.010125  CPU:    0.287
  Cycle:     14 Energy:      -428.332854  Gnorm:      0.009831  CPU:    0.295
  Cycle:     15 Energy:      -428.333266  Gnorm:      0.010904  CPU:    0.323
  Cycle:     16 Energy:      -428.333484  Gnorm:      0.006373  CPU:    0.349
  Cycle:     17 Energy:      -428.333652  Gnorm:      0.006864  CPU:    0.362
  Cycle:     18 Energy:      -428.333770  Gnorm:      0.005473  CPU:    0.386
  Cycle:     19 Energy:      -428.333905  Gnorm:      0.005112  CPU:    0.396
  Cycle:     20 Energy:      -428.333941  Gnorm:      0.003084  CPU:    0.420
  Cycle:     21 Energy:      -428.333970  Gnorm:      0.002736  CPU:    0.428
  Cycle:     22 Energy:      -428.333995  Gnorm:      0.002873  CPU:    0.454
  Cycle:     23 Energy:      -428.334031  Gnorm:      0.003241  CPU:    0.483
  Cycle:     24 Energy:      -428.334069  Gnorm:      0.003887  CPU:    0.491
  Cycle:     25 Energy:      -428.334128  Gnorm:      0.002732  CPU:    0.516
  Cycle:     26 Energy:      -428.334150  Gnorm:      0.002899  CPU:    0.541
  Cycle:     27 Energy:      -428.334180  Gnorm:      0.002934  CPU:    0.552
  Cycle:     28 Energy:      -428.334219  Gnorm:      0.003898  CPU:    0.576
  Cycle:     29 Energy:      -428.334253  Gnorm:      0.002758  CPU:    0.602
  Cycle:     30 Energy:      -428.334271  Gnorm:      0.002045  CPU:    0.614
  Cycle:     31 Energy:      -428.334281  Gnorm:      0.001730  CPU:    0.636
  Cycle:     32 Energy:      -428.334292  Gnorm:      0.001710  CPU:    0.644
  Cycle:     33 Energy:      -428.334301  Gnorm:      0.001814  CPU:    0.669
  Cycle:     34 Energy:      -428.334316  Gnorm:      0.002067  CPU:    0.679
  Cycle:     35 Energy:      -428.334327  Gnorm:      0.001720  CPU:    0.715
  Cycle:     36 Energy:      -428.334341  Gnorm:      0.001575  CPU:    0.780
  Cycle:     37 Energy:      -428.334353  Gnorm:      0.001807  CPU:    0.792
  Cycle:     38 Energy:      -428.334362  Gnorm:      0.001725  CPU:    0.817
  Cycle:     39 Energy:      -428.334374  Gnorm:      0.002285  CPU:    0.827
  Cycle:     40 Energy:      -428.334382  Gnorm:      0.001441  CPU:    0.853
  Cycle:     41 Energy:      -428.334390  Gnorm:      0.001689  CPU:    0.871
  Cycle:     42 Energy:      -428.334396  Gnorm:      0.001152  CPU:    0.888
  Cycle:     43 Energy:      -428.334404  Gnorm:      0.001206  CPU:    0.907
  Cycle:     44 Energy:      -428.334412  Gnorm:      0.001843  CPU:    0.924
  Cycle:     45 Energy:      -428.334419  Gnorm:      0.001427  CPU:    0.934
  Cycle:     46 Energy:      -428.334427  Gnorm:      0.001442  CPU:    1.031
  Cycle:     47 Energy:      -428.334431  Gnorm:      0.001114  CPU:    1.055
  Cycle:     48 Energy:      -428.334436  Gnorm:      0.001218  CPU:    1.065
  Cycle:     49 Energy:      -428.334443  Gnorm:      0.001819  CPU:    1.093
  Cycle:     50 Energy:      -428.334449  Gnorm:      0.000910  CPU:    1.103
  Cycle:     51 Energy:      -428.334451  Gnorm:      0.000605  CPU:    1.129
  Cycle:     52 Energy:      -428.334452  Gnorm:      0.000480  CPU:    1.151
  Cycle:     53 Energy:      -428.334453  Gnorm:      0.000446  CPU:    1.166
  Cycle:     54 Energy:      -428.334453  Gnorm:      0.000433  CPU:    1.193
  Cycle:     55 Energy:      -428.334454  Gnorm:      0.000428  CPU:    1.202
  Cycle:     56 Energy:      -428.334454  Gnorm:      0.000425  CPU:    1.228
  Cycle:     57 Energy:      -428.334474  Gnorm:      0.000550  CPU:    1.260
  Cycle:     58 Energy:      -428.334477  Gnorm:      0.002469  CPU:    1.268
  Cycle:     59 Energy:      -428.334479  Gnorm:      0.002881  CPU:    1.292
  Cycle:     60 Energy:      -428.334487  Gnorm:      0.000844  CPU:    1.319
  Cycle:     61 Energy:      -428.334490  Gnorm:      0.001176  CPU:    1.347
  Cycle:     62 Energy:      -428.334491  Gnorm:      0.000781  CPU:    1.384
  Cycle:     63 Energy:      -428.334492  Gnorm:      0.000530  CPU:    1.415
  Cycle:     64 Energy:      -428.334492  Gnorm:      0.000486  CPU:    1.425
  Cycle:     65 Energy:      -428.334493  Gnorm:      0.000469  CPU:    1.451
  Cycle:     66 Energy:      -428.334493  Gnorm:      0.000465  CPU:    1.460
  Cycle:     67 Energy:      -428.334494  Gnorm:      0.000590  CPU:    1.493
  Cycle:     68 Energy:      -428.334498  Gnorm:      0.001218  CPU:    1.519
  Cycle:     69 Energy:      -428.334503  Gnorm:      0.001778  CPU:    1.528
  Cycle:     70 Energy:      -428.334506  Gnorm:      0.000902  CPU:    1.551
  Cycle:     71 Energy:      -428.334508  Gnorm:      0.000604  CPU:    1.560
  Cycle:     72 Energy:      -428.334509  Gnorm:      0.000734  CPU:    1.586
  Cycle:     73 Energy:      -428.334510  Gnorm:      0.000839  CPU:    1.596
  Cycle:     74 Energy:      -428.334512  Gnorm:      0.000849  CPU:    1.623
  Cycle:     75 Energy:      -428.334515  Gnorm:      0.001306  CPU:    1.632
  Cycle:     76 Energy:      -428.334524  Gnorm:      0.001551  CPU:    1.659
  Cycle:     77 Energy:      -428.334529  Gnorm:      0.001560  CPU:    1.667
  Cycle:     78 Energy:      -428.334540  Gnorm:      0.001696  CPU:    1.693
  Cycle:     79 Energy:      -428.334548  Gnorm:      0.001670  CPU:    1.703
  Cycle:     80 Energy:      -428.334554  Gnorm:      0.000839  CPU:    1.726
  Cycle:     81 Energy:      -428.334555  Gnorm:      0.000705  CPU:    1.736
  Cycle:     82 Energy:      -428.334555  Gnorm:      0.000726  CPU:    1.755
  Cycle:     83 Energy:      -428.334556  Gnorm:      0.000339  CPU:    1.771
  Cycle:     84 Energy:      -428.334556  Gnorm:      0.000299  CPU:    1.788
  Cycle:     85 Energy:      -428.334556  Gnorm:      0.000291  CPU:    1.804
  Cycle:     86 Energy:      -428.334556  Gnorm:      0.000291  CPU:    1.813
  Cycle:     87 Energy:      -428.334557  Gnorm:      0.000387  CPU:    1.843
  Cycle:     88 Energy:      -428.334560  Gnorm:      0.000808  CPU:    1.867
  Cycle:     89 Energy:      -428.334562  Gnorm:      0.001342  CPU:    1.876
  Cycle:     90 Energy:      -428.334564  Gnorm:      0.000576  CPU:    1.897
  Cycle:     91 Energy:      -428.334565  Gnorm:      0.000456  CPU:    1.922
  Cycle:     92 Energy:      -428.334565  Gnorm:      0.000377  CPU:    1.929
  Cycle:     93 Energy:      -428.334565  Gnorm:      0.000300  CPU:    1.954
  Cycle:     94 Energy:      -428.334566  Gnorm:      0.000273  CPU:    1.969


  **** Optimisation achieved ****


  Final energy =    -428.33456570 eV
  Final Gnorm  =       0.00026064

  Components of energy : 

--------------------------------------------------------------------------------
  Interatomic potentials     =           0.00000000 eV    
  Brenner potentials         =        -428.33456570 eV    
  Monopole - monopole (real) =           0.00000000 eV    
  Monopole - monopole (recip)=           0.00000000 eV    
  Monopole - monopole (total)=           0.00000000 eV    
--------------------------------------------------------------------------------
  Total lattice energy       =        -428.33456570 eV    
--------------------------------------------------------------------------------
  Total lattice energy       =          -41327.7379 kJ/(mole unit cells)
--------------------------------------------------------------------------------

  Final fractional coordinates of atoms :

--------------------------------------------------------------------------------
   No.  Atomic        x           y          z          Radius
        Label       (Frac)      (Frac)     (Frac)       (Angs) 
--------------------------------------------------------------------------------
     1  C     c     0.025100    0.587150    0.365320    0.000000
     2  C     c     0.261055    0.102152    0.106980    0.000000
     3  C     c     0.099982    0.439251    0.267216    0.000000
     4  C     c     0.879177    0.967172    0.452648    0.000000
     5  C     c     0.477599    0.916276    0.989012    0.000000
     6  C     c     0.786188    0.448010    0.221134    0.000000
     7  C     c     0.920545    0.635113    0.717503    0.000000
     8  C     c     0.810323    0.552245    0.589556    0.000000
     9  C     c     0.132419    0.380326    0.639536    0.000000
    10  C     c     0.405312    0.763812    0.117531    0.000000
    11  C     c     0.888800    0.255111    0.746101    0.000000
    12  C     c     0.571757    0.897143    0.557113    0.000000
    13  C     c     0.425451    0.240801    0.632100    0.000000
    14  C     c     0.201798    0.982538    0.797844    0.000000
    15  C     c     0.522092    0.607889    0.406242    0.000000
    16  C     c     0.988548    0.937594    0.119840    0.000000
    17  C     c     0.137621    0.820795    0.858253    0.000000
    18  C     c     0.349282    0.688755    0.663070    0.000000
    19  C     c     0.737610    0.382795    0.683186    0.000000
    20  C     c     0.044410    0.259586    0.265168    0.000000
    21  C     c     0.936116    0.174310    0.419984    0.000000
    22  C     c     0.843715    0.614855    0.415136    0.000000
    23  C     c     0.480302    0.816487    0.689321    0.000000
    24  C     c     0.794189    0.298315    0.328500    0.000000
    25  C     c     0.668716    0.158800    0.015426    0.000000
    26  C     c     0.520359    0.604017    0.088528    0.000000
    27  C     c     0.605424    0.280489    0.571051    0.000000
    28  C     c     0.635014    0.987868    0.118054    0.000000
    29  C     c     0.480624    0.915732    0.250083    0.000000
    30  C     c     0.340022    0.055838    0.923052    0.000000
    31  C     c     0.809547    0.111357    0.882736    0.000000
    32  C     c     0.864052    0.764393    0.837502    0.000000
    33  C     c     0.307685    0.395402    0.577075    0.000000
    34  C     c     0.227915    0.687117    0.123526    0.000000
    35  C     c     0.071360    0.511266    0.779076    0.000000
    36  C     c     0.325920    0.102945    0.508679    0.000000
    37  C     c     0.119766    0.741726    0.423942    0.000000
    38  C     c     0.542756    0.313872    0.956674    0.000000
    39  C     c     0.062493    0.132250    0.108366    0.000000
    40  C     c     0.769388    0.940555    0.796092    0.000000
    41  C     c     0.392938    0.557564    0.534557    0.000000
    42  C     c     0.067905    0.897268    0.498083    0.000000
    43  C     c     0.999317    0.429026    0.954375    0.000000
    44  C     c     0.239421    0.501204    0.157397    0.000000
    45  C     c     0.197797    0.671087    0.768992    0.000000
    46  C     c     0.890895    0.519080    0.081607    0.000000
    47  C     c     0.801390    0.861588    0.154236    0.000000
    48  C     c     0.983586    0.222488    0.948295    0.000000
    49  C     c     0.776154    0.804768    0.349411    0.000000
    50  C     c     0.820092    0.699200    0.025196    0.000000
    51  C     c     0.159236    0.041540    0.607414    0.000000
    52  C     c     0.477458    0.263433    0.276230    0.000000
    53  C     c     0.435201    0.399643    0.122964    0.000000
    54  C     c     0.367016    0.086505    0.292161    0.000000
    55  C     c     0.624373    0.266783    0.391967    0.000000
    56  C     c     0.422815    0.210078    0.831914    0.000000
    57  C     c     0.643783    0.454560    0.850114    0.000000
    58  C     c     0.737793    0.964799    0.602243    0.000000
    59  C     c     0.101530    0.802819    0.043202    0.000000
    60  C     c     0.616834    0.535801    0.254309    0.000000
    61  C     c     0.573666    0.807911    0.388979    0.000000
    62  C     c     0.027141    0.209465    0.602838    0.000000
    63  C     c     0.639902    0.639863    0.932439    0.000000
    64  C     c     0.588331    0.823097    0.852458    0.000000
--------------------------------------------------------------------------------

  Final internal derivatives :

--------------------------------------------------------------------------------
   No.  Atomic          a             b             c           Radius
        Label          (eV)          (eV)          (eV)        (eV/Angs)
--------------------------------------------------------------------------------
      1 C     c       0.000000      0.000000      0.000000      0.000000
      2 C     c       0.000280      0.000271      0.002025      0.000000
      3 C     c       0.001965      0.002195     -0.001034      0.000000
      4 C     c       0.000860     -0.000145      0.005048      0.000000
      5 C     c      -0.000702      0.002562      0.002603      0.000000
      6 C     c      -0.000676      0.003945      0.000662      0.000000
      7 C     c       0.002748      0.006499      0.002508      0.000000
      8 C     c       0.002931      0.003831      0.004463      0.000000
      9 C     c       0.001452      0.005969      0.003048      0.000000
     10 C     c       0.000636      0.001942      0.003628      0.000000
     11 C     c       0.002536      0.005221      0.001460      0.000000
     12 C     c       0.001796      0.002427      0.001920      0.000000
     13 C     c       0.001549      0.006110      0.002441      0.000000
     14 C     c       0.002321      0.004360      0.001423      0.000000
     15 C     c      -0.002064      0.005890      0.001313      0.000000
     16 C     c       0.002320      0.004862      0.002691      0.000000
     17 C     c       0.002479      0.005736      0.002341      0.000000
     18 C     c      -0.001400      0.005934      0.001417      0.000000
     19 C     c       0.004192      0.004237      0.002869      0.000000
     20 C     c      -0.000980      0.003759      0.003754      0.000000
     21 C     c      -0.000178      0.000674      0.002984      0.000000
     22 C     c      -0.000193      0.000846      0.003048      0.000000
     23 C     c       0.000442      0.006543      0.004615      0.000000
     24 C     c      -0.000708      0.004639      0.001221      0.000000
     25 C     c      -0.001564      0.004620     -0.001046      0.000000
     26 C     c       0.002964      0.006469      0.003946      0.000000
     27 C     c       0.001127      0.005085      0.003828      0.000000
     28 C     c      -0.000763      0.004641      0.000466      0.000000
     29 C     c       0.000107      0.005245      0.003384      0.000000
     30 C     c       0.000534      0.004378      0.000741      0.000000
     31 C     c      -0.000154      0.005454      0.003057      0.000000
     32 C     c       0.002705      0.003409      0.002820      0.000000
     33 C     c       0.001250      0.006298      0.004758      0.000000
     34 C     c       0.001644      0.001625     -0.000914      0.000000
     35 C     c       0.003518      0.007669      0.000163      0.000000
     36 C     c       0.001735      0.004232      0.001738      0.000000
     37 C     c      -0.001207      0.003275     -0.002136      0.000000
     38 C     c      -0.000002      0.006576      0.001738      0.000000
     39 C     c       0.001020      0.006910      0.002829      0.000000
     40 C     c      -0.002948      0.002627      0.006109      0.000000
     41 C     c      -0.000200      0.005910      0.003006      0.000000
     42 C     c      -0.000624     -0.001164      0.006227      0.000000
     43 C     c      -0.001618      0.008683     -0.000222      0.000000
     44 C     c       0.002201      0.002299     -0.000742      0.000000
     45 C     c       0.002244      0.005819      0.004631      0.000000
     46 C     c      -0.002416      0.005536     -0.000438      0.000000
     47 C     c       0.000515      0.005104      0.002281      0.000000
     48 C     c       0.000579      0.008158      0.003104      0.000000
     49 C     c      -0.000607      0.002305      0.002586      0.000000
     50 C     c       0.000607      0.006132      0.002117      0.000000
     51 C     c       0.001779      0.002472      0.002232      0.000000
     52 C     c       0.000096      0.006239      0.002676      0.000000
     53 C     c       0.004156      0.004977      0.003351      0.000000
     54 C     c       0.001084      0.005941      0.000666      0.000000
     55 C     c       0.000987      0.007998      0.003968      0.000000
     56 C     c       0.000223      0.005296      0.002176      0.000000
     57 C     c       0.001192      0.006291      0.000824      0.000000
     58 C     c       0.001801      0.002580      0.007774      0.000000
     59 C     c       0.002123      0.005669      0.002064      0.000000
     60 C     c       0.002506      0.007376      0.002822      0.000000
     61 C     c      -0.000363      0.004457      0.003272      0.000000
     62 C     c       0.002015      0.004742      0.002301      0.000000
     63 C     c      -0.000080      0.004535      0.002245      0.000000
     64 C     c       0.004716      0.009129      0.000568      0.000000
--------------------------------------------------------------------------------
  Maximum abs         0.004716      0.009129      0.007774      0.000000
--------------------------------------------------------------------------------


  Time to end of optimisation =       1.9881 seconds


  Peak dynamic memory used =       1.98 MB 


  Timing analysis for GULP :

--------------------------------------------------------------------------------
  Task / Subroutine                                          Time (Seconds)
--------------------------------------------------------------------------------
  Calculation of Brenner energy and derivatives                   1.9565
--------------------------------------------------------------------------------
  Total CPU time                                                  1.9882
--------------------------------------------------------------------------------


  CIF file written as opti_1.0050.cif


  Job Finished at 16:48.25 11th August     2020                               

