********************************************************************************
*                       GENERAL UTILITY LATTICE PROGRAM                        *
*                                 Julian Gale                                  *
*                       Curtin Institute for Computation                       *
*                    School of Molecular and Life Sciences                     *
*                    Curtin University, Western Australia                      *
********************************************************************************
* Version = 5.2.0 * Last modified =  17th December 2019                        *
********************************************************************************
*  optimise     - perform optimisation run                                     *
*  conv         - constant volume calculation                                  *
*  isotropic    - only isotropic cell expansion to be allowed                  *
*  conjugate    - use conjugate gradients minimiser                            *
********************************************************************************
* ASE calculation                                                              *
********************************************************************************


  Job Started  at 23:36.49 10th August     2020                               

  Number of CPUs =     1


  Total number of configurations input =      1

********************************************************************************
*  Input for Configuration =   1                                               *
********************************************************************************

  Formula = C64                                                         

  Number of irreducible atoms/shells =      64


  Total number atoms/shells =      64

  Dimensionality = 3               :  Bulk   



  Cartesian lattice vectors (Angstroms) :

        7.621641    0.000000    0.000000
        0.000000    7.621641    0.000000
        0.000000    0.000000    7.621641

  Cell parameters (Angstroms/Degrees):

  a =       7.6216    alpha =  90.0000
  b =       7.6216    beta  =  90.0000
  c =       7.6216    gamma =  90.0000

  Initial cell volume =         442.736641 Angs**3

  Temperature of configuration =   0.00     K 

  Pressure of configuration =         0.000 GPa 

  Fractional coordinates of asymmetric unit :

--------------------------------------------------------------------------------
   No.  Atomic       x           y          z         Charge      Occupancy
        Label      (Frac)      (Frac)     (Frac)        (e)         (Frac)  
--------------------------------------------------------------------------------
      1 C     c    0.025100    0.587150    0.365320     0.00000    1.000000    
      2 C     c    0.261960 *  0.102350 *  0.107880 *   0.00000    1.000000    
      3 C     c    0.100080 *  0.438460 *  0.267700 *   0.00000    1.000000    
      4 C     c    0.878960 *  0.966820 *  0.452800 *   0.00000    1.000000    
      5 C     c    0.476970 *  0.917400 *  0.988740 *   0.00000    1.000000    
      6 C     c    0.786990 *  0.447150 *  0.220140 *   0.00000    1.000000    
      7 C     c    0.923040 *  0.637530 *  0.717050 *   0.00000    1.000000    
      8 C     c    0.810170 *  0.554570 *  0.590270 *   0.00000    1.000000    
      9 C     c    0.131790 *  0.380040 *  0.638710 *   0.00000    1.000000    
     10 C     c    0.404270 *  0.764550 *  0.117610 *   0.00000    1.000000    
     11 C     c    0.889700 *  0.256980 *  0.746610 *   0.00000    1.000000    
     12 C     c    0.569910 *  0.900620 *  0.557400 *   0.00000    1.000000    
     13 C     c    0.425650 *  0.240870 *  0.632440 *   0.00000    1.000000    
     14 C     c    0.200020 *  0.983730 *  0.798590 *   0.00000    1.000000    
     15 C     c    0.523060 *  0.608540 *  0.406760 *   0.00000    1.000000    
     16 C     c    0.987720 *  0.938200 *  0.121300 *   0.00000    1.000000    
     17 C     c    0.134680 *  0.821550 *  0.858210 *   0.00000    1.000000    
     18 C     c    0.347750 *  0.690110 *  0.662490 *   0.00000    1.000000    
     19 C     c    0.738190 *  0.384180 *  0.683430 *   0.00000    1.000000    
     20 C     c    0.046460 *  0.258110 *  0.266300 *   0.00000    1.000000    
     21 C     c    0.936080 *  0.173340 *  0.419850 *   0.00000    1.000000    
     22 C     c    0.843300 *  0.615880 *  0.414960 *   0.00000    1.000000    
     23 C     c    0.478470 *  0.818970 *  0.689890 *   0.00000    1.000000    
     24 C     c    0.794120 *  0.296780 *  0.327440 *   0.00000    1.000000    
     25 C     c    0.669440 *  0.161030 *  0.017330 *   0.00000    1.000000    
     26 C     c    0.520340 *  0.604650 *  0.088350 *   0.00000    1.000000    
     27 C     c    0.606080 *  0.280540 *  0.571440 *   0.00000    1.000000    
     28 C     c    0.633890 *  0.989520 *  0.119020 *   0.00000    1.000000    
     29 C     c    0.479160 *  0.916090 *  0.251290 *   0.00000    1.000000    
     30 C     c    0.339390 *  0.056680 *  0.923070 *   0.00000    1.000000    
     31 C     c    0.810280 *  0.113020 *  0.884120 *   0.00000    1.000000    
     32 C     c    0.867960 *  0.767490 *  0.838100 *   0.00000    1.000000    
     33 C     c    0.307470 *  0.395320 *  0.575810 *   0.00000    1.000000    
     34 C     c    0.226620 *  0.687030 *  0.123410 *   0.00000    1.000000    
     35 C     c    0.071610 *  0.510040 *  0.779400 *   0.00000    1.000000    
     36 C     c    0.326190 *  0.102150 *  0.509580 *   0.00000    1.000000    
     37 C     c    0.121970 *  0.741100 *  0.423810 *   0.00000    1.000000    
     38 C     c    0.542650 *  0.314790 *  0.957100 *   0.00000    1.000000    
     39 C     c    0.063420 *  0.131370 *  0.109250 *   0.00000    1.000000    
     40 C     c    0.769650 *  0.942180 *  0.796810 *   0.00000    1.000000    
     41 C     c    0.392750 *  0.558230 *  0.534200 *   0.00000    1.000000    
     42 C     c    0.068190 *  0.896530 *  0.498720 *   0.00000    1.000000    
     43 C     c    0.001700 *  0.428840 *  0.954850 *   0.00000    1.000000    
     44 C     c    0.238470 *  0.500650 *  0.156150 *   0.00000    1.000000    
     45 C     c    0.195640 *  0.672080 *  0.768160 *   0.00000    1.000000    
     46 C     c    0.892950 *  0.519810 *  0.081840 *   0.00000    1.000000    
     47 C     c    0.799970 *  0.863030 *  0.155410 *   0.00000    1.000000    
     48 C     c    0.985830 *  0.222020 *  0.949250 *   0.00000    1.000000    
     49 C     c    0.775600 *  0.805370 *  0.350130 *   0.00000    1.000000    
     50 C     c    0.821570 *  0.700470 *  0.025360 *   0.00000    1.000000    
     51 C     c    0.158980 *  0.041530 *  0.607950 *   0.00000    1.000000    
     52 C     c    0.476040 *  0.263670 *  0.276630 *   0.00000    1.000000    
     53 C     c    0.434680 *  0.399100 *  0.122780 *   0.00000    1.000000    
     54 C     c    0.365660 *  0.086630 *  0.294640 *   0.00000    1.000000    
     55 C     c    0.624160 *  0.266270 *  0.391700 *   0.00000    1.000000    
     56 C     c    0.422290 *  0.211340 *  0.832230 *   0.00000    1.000000    
     57 C     c    0.643820 *  0.455720 *  0.850330 *   0.00000    1.000000    
     58 C     c    0.737120 *  0.967710 *  0.602660 *   0.00000    1.000000    
     59 C     c    0.099210 *  0.802470 *  0.043610 *   0.00000    1.000000    
     60 C     c    0.617730 *  0.536110 *  0.254430 *   0.00000    1.000000    
     61 C     c    0.572990 *  0.809180 *  0.390000 *   0.00000    1.000000    
     62 C     c    0.027000 *  0.208410 *  0.602340 *   0.00000    1.000000    
     63 C     c    0.640770 *  0.641500 *  0.932270 *   0.00000    1.000000    
     64 C     c    0.588560 *  0.824650 *  0.852350 *   0.00000    1.000000    
--------------------------------------------------------------------------------


  Constraints : 

--------------------------------------------------------------------------------
  Constraint no.      Unconstrained     Constrained    Coefficient    Offset
                         Variable         Variable
--------------------------------------------------------------------------------
           1              Strain 1        Strain 2       1.00000      0.0000
           2              Strain 1        Strain 3       1.00000      0.0000
--------------------------------------------------------------------------------


********************************************************************************
*  General input information                                                   *
********************************************************************************

  Species output for all configurations : 

--------------------------------------------------------------------------------
  Species    Type    Atomic    Atomic    Charge       Radii (Angs)     Library
                     Number     Mass       (e)     Cova   Ionic  VDW   Symbol
--------------------------------------------------------------------------------
    C        Core        6      12.01   0.000000   0.770  0.000  1.530          
--------------------------------------------------------------------------------


  Lattice summation method               =    Ewald          (3-D)
                                         =    Parry          (2-D)
                                         =    Saunders et al (1-D)
  Accuracy factor for lattice sums       =   12.000


  Analytic derivatives to be used

  Time limit = Infinity

  Maximum range for interatomic potentials =    100000.000000 Angstroms

  Brenner et al 2002 potential to be used with explicit splines for P


********************************************************************************
*  Output for configuration   1                                                *
********************************************************************************


  Components of energy : 

--------------------------------------------------------------------------------
  Interatomic potentials     =           0.00000000 eV    
  Brenner potentials         =        -428.26853753 eV    
  Monopole - monopole (real) =           0.00000000 eV    
  Monopole - monopole (recip)=           0.00000000 eV    
  Monopole - monopole (total)=           0.00000000 eV    
--------------------------------------------------------------------------------
  Total lattice energy       =        -428.26853753 eV    
--------------------------------------------------------------------------------
  Total lattice energy       =          -41321.3672 kJ/(mole unit cells)
--------------------------------------------------------------------------------


  Number of variables =      189

  Maximum number of calculations  =          2000
  Maximum Hessian update interval =            10
  Maximum step size               =   1.000000000
  Maximum parameter tolerance     =   0.000010000
  Maximum function  tolerance     =   0.000010000
  Maximum gradient  tolerance     =   0.001000000
  Maximum gradient  component     =   0.010000000

  Symmetry not applied to optimisation

  Conjugate gradient optimiser to be used

  Lower half triangular hessian to be used

  Start of bulk optimisation :

  Cycle:      0 Energy:      -428.268538  Gnorm:      0.138247  CPU:    0.023
  Cycle:      1 Energy:      -428.293404  Gnorm:      0.058579  CPU:    0.059
  Cycle:      2 Energy:      -428.303408  Gnorm:      0.051642  CPU:    0.082
  Cycle:      3 Energy:      -428.311964  Gnorm:      0.046964  CPU:    0.091
  Cycle:      4 Energy:      -428.317100  Gnorm:      0.039907  CPU:    0.097
  Cycle:      5 Energy:      -428.320623  Gnorm:      0.030671  CPU:    0.122
  Cycle:      6 Energy:      -428.323658  Gnorm:      0.031312  CPU:    0.130
  Cycle:      7 Energy:      -428.326573  Gnorm:      0.025787  CPU:    0.141
  Cycle:      8 Energy:      -428.328512  Gnorm:      0.022266  CPU:    0.165
  Cycle:      9 Energy:      -428.330102  Gnorm:      0.018303  CPU:    0.177
  Cycle:     10 Energy:      -428.330777  Gnorm:      0.010216  CPU:    0.183
  Cycle:     11 Energy:      -428.331183  Gnorm:      0.012540  CPU:    0.209
  Cycle:     12 Energy:      -428.331513  Gnorm:      0.011231  CPU:    0.217
  Cycle:     13 Energy:      -428.332014  Gnorm:      0.009136  CPU:    0.223
  Cycle:     14 Energy:      -428.332482  Gnorm:      0.012360  CPU:    0.235
  Cycle:     15 Energy:      -428.332817  Gnorm:      0.008836  CPU:    0.255
  Cycle:     16 Energy:      -428.332971  Gnorm:      0.006599  CPU:    0.263
  Cycle:     17 Energy:      -428.333144  Gnorm:      0.005379  CPU:    0.269
  Cycle:     18 Energy:      -428.333302  Gnorm:      0.006833  CPU:    0.294
  Cycle:     19 Energy:      -428.333396  Gnorm:      0.004094  CPU:    0.303
  Cycle:     20 Energy:      -428.333438  Gnorm:      0.003355  CPU:    0.311
  Cycle:     21 Energy:      -428.333464  Gnorm:      0.002604  CPU:    0.336
  Cycle:     22 Energy:      -428.333502  Gnorm:      0.002789  CPU:    0.347
  Cycle:     23 Energy:      -428.333523  Gnorm:      0.003213  CPU:    0.372
  Cycle:     24 Energy:      -428.333566  Gnorm:      0.003407  CPU:    0.382
  Cycle:     25 Energy:      -428.333612  Gnorm:      0.003342  CPU:    0.388
  Cycle:     26 Energy:      -428.333646  Gnorm:      0.002756  CPU:    0.412
  Cycle:     27 Energy:      -428.333685  Gnorm:      0.003203  CPU:    0.422
  Cycle:     28 Energy:      -428.333705  Gnorm:      0.002593  CPU:    0.429
  Cycle:     29 Energy:      -428.333740  Gnorm:      0.002493  CPU:    0.475
  Cycle:     30 Energy:      -428.333756  Gnorm:      0.001651  CPU:    0.496
  Cycle:     31 Energy:      -428.333767  Gnorm:      0.002032  CPU:    0.505
  Cycle:     32 Energy:      -428.333777  Gnorm:      0.001853  CPU:    0.511
  Cycle:     33 Energy:      -428.333784  Gnorm:      0.001580  CPU:    0.528
  Cycle:     34 Energy:      -428.333799  Gnorm:      0.001632  CPU:    0.546
  Cycle:     35 Energy:      -428.333806  Gnorm:      0.001697  CPU:    0.553
  Cycle:     36 Energy:      -428.333816  Gnorm:      0.001723  CPU:    0.559
  Cycle:     37 Energy:      -428.333834  Gnorm:      0.001770  CPU:    0.586
  Cycle:     38 Energy:      -428.333845  Gnorm:      0.001551  CPU:    0.594
  Cycle:     39 Energy:      -428.333855  Gnorm:      0.002048  CPU:    0.606
  Cycle:     40 Energy:      -428.333862  Gnorm:      0.001341  CPU:    0.629
  Cycle:     41 Energy:      -428.333868  Gnorm:      0.001111  CPU:    0.641
  Cycle:     42 Energy:      -428.333871  Gnorm:      0.001103  CPU:    0.647
  Cycle:     43 Energy:      -428.333877  Gnorm:      0.001579  CPU:    0.673
  Cycle:     44 Energy:      -428.333886  Gnorm:      0.002075  CPU:    0.683
  Cycle:     45 Energy:      -428.333895  Gnorm:      0.001422  CPU:    0.689
  Cycle:     46 Energy:      -428.333899  Gnorm:      0.000924  CPU:    0.703
  Cycle:     47 Energy:      -428.333902  Gnorm:      0.001470  CPU:    0.724
  Cycle:     48 Energy:      -428.333908  Gnorm:      0.002186  CPU:    0.732
  Cycle:     49 Energy:      -428.333919  Gnorm:      0.001633  CPU:    0.739
  Cycle:     50 Energy:      -428.333923  Gnorm:      0.000852  CPU:    0.783
  Cycle:     51 Energy:      -428.333925  Gnorm:      0.000687  CPU:    0.809
  Cycle:     52 Energy:      -428.333925  Gnorm:      0.000552  CPU:    0.817
  Cycle:     53 Energy:      -428.333925  Gnorm:      0.000537  CPU:    0.824
  Cycle:     54 Energy:      -428.333926  Gnorm:      0.000529  CPU:    0.836
  Cycle:     55 Energy:      -428.333926  Gnorm:      0.000527  CPU:    0.857
  Cycle:     56 Energy:      -428.333929  Gnorm:      0.001291  CPU:    0.871
  Cycle:     57 Energy:      -428.333933  Gnorm:      0.000897  CPU:    0.891
  Cycle:     58 Energy:      -428.333938  Gnorm:      0.001413  CPU:    0.903
  Cycle:     59 Energy:      -428.333941  Gnorm:      0.000929  CPU:    0.910
  Cycle:     60 Energy:      -428.333944  Gnorm:      0.000604  CPU:    0.916
  Cycle:     61 Energy:      -428.333946  Gnorm:      0.000937  CPU:    0.940
  Cycle:     62 Energy:      -428.333947  Gnorm:      0.001117  CPU:    0.951
  Cycle:     63 Energy:      -428.333948  Gnorm:      0.000670  CPU:    0.958
  Cycle:     64 Energy:      -428.333949  Gnorm:      0.000519  CPU:    0.966
  Cycle:     65 Energy:      -428.333949  Gnorm:      0.000470  CPU:    0.990
  Cycle:     66 Energy:      -428.333950  Gnorm:      0.000461  CPU:    0.998
  Cycle:     67 Energy:      -428.333950  Gnorm:      0.000459  CPU:    1.004
  Cycle:     68 Energy:      -428.333952  Gnorm:      0.000664  CPU:    1.036
  Cycle:     69 Energy:      -428.333954  Gnorm:      0.001163  CPU:    1.044
  Cycle:     70 Energy:      -428.333956  Gnorm:      0.000691  CPU:    1.051
  Cycle:     71 Energy:      -428.333958  Gnorm:      0.000505  CPU:    1.072
  Cycle:     72 Energy:      -428.333958  Gnorm:      0.000417  CPU:    1.086
  Cycle:     73 Energy:      -428.333958  Gnorm:      0.000396  CPU:    1.093
  Cycle:     74 Energy:      -428.333958  Gnorm:      0.000393  CPU:    1.117
  Cycle:     75 Energy:      -428.333958  Gnorm:      0.000393  CPU:    1.130
  Cycle:     76 Energy:      -428.333960  Gnorm:      0.001177  CPU:    1.141
  Cycle:     77 Energy:      -428.333965  Gnorm:      0.001516  CPU:    1.165
  Cycle:     78 Energy:      -428.333970  Gnorm:      0.001470  CPU:    1.178
  Cycle:     79 Energy:      -428.333974  Gnorm:      0.000777  CPU:    1.199
  Cycle:     80 Energy:      -428.333975  Gnorm:      0.000539  CPU:    1.210
  Cycle:     81 Energy:      -428.333976  Gnorm:      0.000579  CPU:    1.218
  Cycle:     82 Energy:      -428.333976  Gnorm:      0.000352  CPU:    1.230
  Cycle:     83 Energy:      -428.333976  Gnorm:      0.000347  CPU:    1.252
  Cycle:     84 Energy:      -428.333979  Gnorm:      0.001375  CPU:    1.266
  Cycle:     85 Energy:      -428.333993  Gnorm:      0.001537  CPU:    1.294
  Cycle:     86 Energy:      -428.333997  Gnorm:      0.001353  CPU:    1.337
  Cycle:     87 Energy:      -428.334001  Gnorm:      0.000992  CPU:    1.345
  Cycle:     88 Energy:      -428.334003  Gnorm:      0.000419  CPU:    1.352
  Cycle:     89 Energy:      -428.334004  Gnorm:      0.000482  CPU:    1.385
  Cycle:     90 Energy:      -428.334004  Gnorm:      0.000498  CPU:    1.393
  Cycle:     91 Energy:      -428.334005  Gnorm:      0.000506  CPU:    1.418


  **** Optimisation achieved ****


  Final energy =    -428.33400518 eV
  Final Gnorm  =       0.00030063

  Components of energy : 

--------------------------------------------------------------------------------
  Interatomic potentials     =           0.00000000 eV    
  Brenner potentials         =        -428.33400518 eV    
  Monopole - monopole (real) =           0.00000000 eV    
  Monopole - monopole (recip)=           0.00000000 eV    
  Monopole - monopole (total)=           0.00000000 eV    
--------------------------------------------------------------------------------
  Total lattice energy       =        -428.33400518 eV    
--------------------------------------------------------------------------------
  Total lattice energy       =          -41327.6838 kJ/(mole unit cells)
--------------------------------------------------------------------------------

  Final fractional coordinates of atoms :

--------------------------------------------------------------------------------
   No.  Atomic        x           y          z          Radius
        Label       (Frac)      (Frac)     (Frac)       (Angs) 
--------------------------------------------------------------------------------
     1  C     c     0.025100    0.587150    0.365320    0.000000
     2  C     c     0.261060    0.102250    0.107023    0.000000
     3  C     c     0.099999    0.439295    0.267212    0.000000
     4  C     c     0.879198    0.967251    0.452685    0.000000
     5  C     c     0.477604    0.916375    0.989066    0.000000
     6  C     c     0.786188    0.448096    0.221172    0.000000
     7  C     c     0.920579    0.635219    0.717550    0.000000
     8  C     c     0.810344    0.552348    0.589618    0.000000
     9  C     c     0.132420    0.380405    0.639593    0.000000
    10  C     c     0.405311    0.763913    0.117589    0.000000
    11  C     c     0.888803    0.255205    0.746146    0.000000
    12  C     c     0.571775    0.897227    0.557161    0.000000
    13  C     c     0.425455    0.240900    0.632147    0.000000
    14  C     c     0.201803    0.982626    0.797887    0.000000
    15  C     c     0.522098    0.607977    0.406296    0.000000
    16  C     c     0.988551    0.937673    0.119877    0.000000
    17  C     c     0.137624    0.820884    0.858295    0.000000
    18  C     c     0.349288    0.688849    0.663119    0.000000
    19  C     c     0.737616    0.382902    0.683239    0.000000
    20  C     c     0.044408    0.259646    0.265198    0.000000
    21  C     c     0.936118    0.174391    0.420020    0.000000
    22  C     c     0.843724    0.614920    0.415183    0.000000
    23  C     c     0.480313    0.816578    0.689369    0.000000
    24  C     c     0.794198    0.298406    0.328545    0.000000
    25  C     c     0.668723    0.158890    0.015472    0.000000
    26  C     c     0.520355    0.604113    0.088583    0.000000
    27  C     c     0.605427    0.280603    0.571099    0.000000
    28  C     c     0.635026    0.987960    0.118107    0.000000
    29  C     c     0.480636    0.915828    0.250134    0.000000
    30  C     c     0.340027    0.055933    0.923097    0.000000
    31  C     c     0.809548    0.111446    0.882777    0.000000
    32  C     c     0.864091    0.764498    0.837554    0.000000
    33  C     c     0.307683    0.395496    0.577126    0.000000
    34  C     c     0.227917    0.687203    0.123569    0.000000
    35  C     c     0.071367    0.511343    0.779136    0.000000
    36  C     c     0.325928    0.103044    0.508722    0.000000
    37  C     c     0.119753    0.741758    0.423964    0.000000
    38  C     c     0.542764    0.313962    0.956721    0.000000
    39  C     c     0.062495    0.132316    0.108400    0.000000
    40  C     c     0.769398    0.940640    0.796138    0.000000
    41  C     c     0.392939    0.557656    0.534608    0.000000
    42  C     c     0.067926    0.897321    0.498105    0.000000
    43  C     c     0.999320    0.429102    0.954424    0.000000
    44  C     c     0.239433    0.501283    0.157415    0.000000
    45  C     c     0.197794    0.671179    0.769030    0.000000
    46  C     c     0.890895    0.519163    0.081647    0.000000
    47  C     c     0.801395    0.861673    0.154282    0.000000
    48  C     c     0.983589    0.222564    0.948336    0.000000
    49  C     c     0.776171    0.804846    0.349453    0.000000
    50  C     c     0.820097    0.699288    0.025232    0.000000
    51  C     c     0.159246    0.041614    0.607448    0.000000
    52  C     c     0.477469    0.263531    0.276276    0.000000
    53  C     c     0.435217    0.399732    0.123003    0.000000
    54  C     c     0.367026    0.086605    0.292206    0.000000
    55  C     c     0.624381    0.266883    0.392018    0.000000
    56  C     c     0.422821    0.210171    0.831960    0.000000
    57  C     c     0.643788    0.454655    0.850168    0.000000
    58  C     c     0.737814    0.964874    0.602287    0.000000
    59  C     c     0.101530    0.802900    0.043241    0.000000
    60  C     c     0.616836    0.535890    0.254359    0.000000
    61  C     c     0.573680    0.807998    0.389027    0.000000
    62  C     c     0.027142    0.209541    0.602874    0.000000
    63  C     c     0.639900    0.639954    0.932499    0.000000
    64  C     c     0.588335    0.823192    0.852512    0.000000
--------------------------------------------------------------------------------

  Final internal derivatives :

--------------------------------------------------------------------------------
   No.  Atomic          a             b             c           Radius
        Label          (eV)          (eV)          (eV)        (eV/Angs)
--------------------------------------------------------------------------------
      1 C     c       0.000000      0.000000      0.000000      0.000000
      2 C     c       0.000464      0.006116      0.001875      0.000000
      3 C     c       0.000804      0.002552     -0.000503      0.000000
      4 C     c       0.000509      0.004820      0.002232      0.000000
      5 C     c      -0.000315      0.007359     -0.001859      0.000000
      6 C     c       0.000632      0.006572      0.003546      0.000000
      7 C     c       0.002511      0.008781      0.003061      0.000000
      8 C     c       0.001475      0.006691      0.004875      0.000000
      9 C     c       0.001206      0.005715      0.003733      0.000000
     10 C     c      -0.000203      0.007438      0.005075      0.000000
     11 C     c      -0.000443      0.007474      0.002868      0.000000
     12 C     c       0.000179      0.006938      0.001087      0.000000
     13 C     c      -0.000218      0.006844      0.003554      0.000000
     14 C     c      -0.000210      0.006363      0.003574      0.000000
     15 C     c      -0.000812      0.005635      0.004444      0.000000
     16 C     c      -0.000155      0.005797      0.003228      0.000000
     17 C     c       0.000009      0.006208      0.002597      0.000000
     18 C     c      -0.000195      0.006692      0.002802      0.000000
     19 C     c      -0.000392      0.007088      0.003512      0.000000
     20 C     c       0.001822      0.003282      0.002774      0.000000
     21 C     c      -0.000291      0.006064      0.001456      0.000000
     22 C     c       0.000096      0.002783      0.002011      0.000000
     23 C     c       0.000766      0.006174      0.005004      0.000000
     24 C     c      -0.000576      0.005810      0.003201      0.000000
     25 C     c       0.000438      0.006754      0.003637      0.000000
     26 C     c      -0.000640      0.006561      0.003452      0.000000
     27 C     c      -0.000591      0.007716      0.003980      0.000000
     28 C     c       0.000855      0.006301      0.003868      0.000000
     29 C     c       0.001065      0.005813      0.008044      0.000000
     30 C     c      -0.000424      0.006344      0.003495      0.000000
     31 C     c       0.000167      0.005283      0.003406      0.000000
     32 C     c       0.002880      0.008376      0.003812      0.000000
     33 C     c       0.000672      0.006642      0.002840      0.000000
     34 C     c       0.000245      0.005712      0.002466      0.000000
     35 C     c       0.000944      0.005550      0.004675      0.000000
     36 C     c       0.001331      0.007419      0.002417      0.000000
     37 C     c       0.000848      0.003197      0.001340      0.000000
     38 C     c       0.000398      0.007702      0.002805      0.000000
     39 C     c       0.000884      0.005080      0.003136      0.000000
     40 C     c       0.004343      0.008859      0.001899      0.000000
     41 C     c      -0.000367      0.006679      0.003711      0.000000
     42 C     c       0.000618      0.003750      0.002625      0.000000
     43 C     c       0.000418      0.004989      0.003174      0.000000
     44 C     c       0.001073      0.004809      0.000848      0.000000
     45 C     c       0.000211      0.006523      0.002538      0.000000
     46 C     c       0.000278      0.005747      0.002227      0.000000
     47 C     c      -0.000639      0.005902      0.003322      0.000000
     48 C     c       0.000200      0.005515      0.003656      0.000000
     49 C     c       0.001807      0.005921      0.002782      0.000000
     50 C     c       0.000546      0.006620      0.002356      0.000000
     51 C     c       0.002147      0.004214      0.002582      0.000000
     52 C     c       0.000767      0.006742      0.003325      0.000000
     53 C     c       0.001429      0.006400      0.003332      0.000000
     54 C     c      -0.000795      0.007598      0.003874      0.000000
     55 C     c       0.000680      0.007292      0.003953      0.000000
     56 C     c       0.000103      0.005920      0.003597      0.000000
     57 C     c       0.001480      0.006824      0.003379      0.000000
     58 C     c       0.001820      0.003996      0.004528      0.000000
     59 C     c      -0.000090      0.005878      0.002422      0.000000
     60 C     c      -0.000242      0.005790      0.003257      0.000000
     61 C     c       0.001173      0.006613      0.004605      0.000000
     62 C     c       0.000445      0.004760      0.001918      0.000000
     63 C     c       0.000362      0.006112      0.003073      0.000000
     64 C     c      -0.002897      0.004855      0.005040      0.000000
--------------------------------------------------------------------------------
  Maximum abs         0.004343      0.008859      0.008044      0.000000
--------------------------------------------------------------------------------


  Time to end of optimisation =       1.4272 seconds


  Peak dynamic memory used =       1.98 MB 


  Timing analysis for GULP :

--------------------------------------------------------------------------------
  Task / Subroutine                                          Time (Seconds)
--------------------------------------------------------------------------------
  Calculation of Brenner energy and derivatives                   1.3953
--------------------------------------------------------------------------------
  Total CPU time                                                  1.4273
--------------------------------------------------------------------------------


  CIF file written as opti_1.0050.cif


  Job Finished at 23:36.50 10th August     2020                               

