********************************************************************************
*                       GENERAL UTILITY LATTICE PROGRAM                        *
*                                 Julian Gale                                  *
*                       Curtin Institute for Computation                       *
*                    School of Molecular and Life Sciences                     *
*                    Curtin University, Western Australia                      *
********************************************************************************
* Version = 5.2.0 * Last modified =  17th December 2019                        *
********************************************************************************
*  optimise     - perform optimisation run                                     *
*  conv         - constant volume calculation                                  *
*  isotropic    - only isotropic cell expansion to be allowed                  *
*  conjugate    - use conjugate gradients minimiser                            *
********************************************************************************
* ASE calculation                                                              *
********************************************************************************


  Job Started  at 23:35.13 10th August     2020                               

  Number of CPUs =     1


  Total number of configurations input =      1

********************************************************************************
*  Input for Configuration =   1                                               *
********************************************************************************

  Formula = C64                                                         

  Number of irreducible atoms/shells =      64


  Total number atoms/shells =      64

  Dimensionality = 3               :  Bulk   



  Cartesian lattice vectors (Angstroms) :

        7.583532    0.000000    0.000000
        0.000000    7.583532    0.000000
        0.000000    0.000000    7.583532

  Cell parameters (Angstroms/Degrees):

  a =       7.5835    alpha =  90.0000
  b =       7.5835    beta  =  90.0000
  c =       7.5835    gamma =  90.0000

  Initial cell volume =         436.128604 Angs**3

  Temperature of configuration =   0.00     K 

  Pressure of configuration =         0.000 GPa 

  Fractional coordinates of asymmetric unit :

--------------------------------------------------------------------------------
   No.  Atomic       x           y          z         Charge      Occupancy
        Label      (Frac)      (Frac)     (Frac)        (e)         (Frac)  
--------------------------------------------------------------------------------
      1 C     c    0.025100    0.587150    0.365320     0.00000    1.000000    
      2 C     c    0.261960 *  0.102350 *  0.107880 *   0.00000    1.000000    
      3 C     c    0.100080 *  0.438460 *  0.267700 *   0.00000    1.000000    
      4 C     c    0.878960 *  0.966820 *  0.452800 *   0.00000    1.000000    
      5 C     c    0.476970 *  0.917400 *  0.988740 *   0.00000    1.000000    
      6 C     c    0.786990 *  0.447150 *  0.220140 *   0.00000    1.000000    
      7 C     c    0.923040 *  0.637530 *  0.717050 *   0.00000    1.000000    
      8 C     c    0.810170 *  0.554570 *  0.590270 *   0.00000    1.000000    
      9 C     c    0.131790 *  0.380040 *  0.638710 *   0.00000    1.000000    
     10 C     c    0.404270 *  0.764550 *  0.117610 *   0.00000    1.000000    
     11 C     c    0.889700 *  0.256980 *  0.746610 *   0.00000    1.000000    
     12 C     c    0.569910 *  0.900620 *  0.557400 *   0.00000    1.000000    
     13 C     c    0.425650 *  0.240870 *  0.632440 *   0.00000    1.000000    
     14 C     c    0.200020 *  0.983730 *  0.798590 *   0.00000    1.000000    
     15 C     c    0.523060 *  0.608540 *  0.406760 *   0.00000    1.000000    
     16 C     c    0.987720 *  0.938200 *  0.121300 *   0.00000    1.000000    
     17 C     c    0.134680 *  0.821550 *  0.858210 *   0.00000    1.000000    
     18 C     c    0.347750 *  0.690110 *  0.662490 *   0.00000    1.000000    
     19 C     c    0.738190 *  0.384180 *  0.683430 *   0.00000    1.000000    
     20 C     c    0.046460 *  0.258110 *  0.266300 *   0.00000    1.000000    
     21 C     c    0.936080 *  0.173340 *  0.419850 *   0.00000    1.000000    
     22 C     c    0.843300 *  0.615880 *  0.414960 *   0.00000    1.000000    
     23 C     c    0.478470 *  0.818970 *  0.689890 *   0.00000    1.000000    
     24 C     c    0.794120 *  0.296780 *  0.327440 *   0.00000    1.000000    
     25 C     c    0.669440 *  0.161030 *  0.017330 *   0.00000    1.000000    
     26 C     c    0.520340 *  0.604650 *  0.088350 *   0.00000    1.000000    
     27 C     c    0.606080 *  0.280540 *  0.571440 *   0.00000    1.000000    
     28 C     c    0.633890 *  0.989520 *  0.119020 *   0.00000    1.000000    
     29 C     c    0.479160 *  0.916090 *  0.251290 *   0.00000    1.000000    
     30 C     c    0.339390 *  0.056680 *  0.923070 *   0.00000    1.000000    
     31 C     c    0.810280 *  0.113020 *  0.884120 *   0.00000    1.000000    
     32 C     c    0.867960 *  0.767490 *  0.838100 *   0.00000    1.000000    
     33 C     c    0.307470 *  0.395320 *  0.575810 *   0.00000    1.000000    
     34 C     c    0.226620 *  0.687030 *  0.123410 *   0.00000    1.000000    
     35 C     c    0.071610 *  0.510040 *  0.779400 *   0.00000    1.000000    
     36 C     c    0.326190 *  0.102150 *  0.509580 *   0.00000    1.000000    
     37 C     c    0.121970 *  0.741100 *  0.423810 *   0.00000    1.000000    
     38 C     c    0.542650 *  0.314790 *  0.957100 *   0.00000    1.000000    
     39 C     c    0.063420 *  0.131370 *  0.109250 *   0.00000    1.000000    
     40 C     c    0.769650 *  0.942180 *  0.796810 *   0.00000    1.000000    
     41 C     c    0.392750 *  0.558230 *  0.534200 *   0.00000    1.000000    
     42 C     c    0.068190 *  0.896530 *  0.498720 *   0.00000    1.000000    
     43 C     c    0.001700 *  0.428840 *  0.954850 *   0.00000    1.000000    
     44 C     c    0.238470 *  0.500650 *  0.156150 *   0.00000    1.000000    
     45 C     c    0.195640 *  0.672080 *  0.768160 *   0.00000    1.000000    
     46 C     c    0.892950 *  0.519810 *  0.081840 *   0.00000    1.000000    
     47 C     c    0.799970 *  0.863030 *  0.155410 *   0.00000    1.000000    
     48 C     c    0.985830 *  0.222020 *  0.949250 *   0.00000    1.000000    
     49 C     c    0.775600 *  0.805370 *  0.350130 *   0.00000    1.000000    
     50 C     c    0.821570 *  0.700470 *  0.025360 *   0.00000    1.000000    
     51 C     c    0.158980 *  0.041530 *  0.607950 *   0.00000    1.000000    
     52 C     c    0.476040 *  0.263670 *  0.276630 *   0.00000    1.000000    
     53 C     c    0.434680 *  0.399100 *  0.122780 *   0.00000    1.000000    
     54 C     c    0.365660 *  0.086630 *  0.294640 *   0.00000    1.000000    
     55 C     c    0.624160 *  0.266270 *  0.391700 *   0.00000    1.000000    
     56 C     c    0.422290 *  0.211340 *  0.832230 *   0.00000    1.000000    
     57 C     c    0.643820 *  0.455720 *  0.850330 *   0.00000    1.000000    
     58 C     c    0.737120 *  0.967710 *  0.602660 *   0.00000    1.000000    
     59 C     c    0.099210 *  0.802470 *  0.043610 *   0.00000    1.000000    
     60 C     c    0.617730 *  0.536110 *  0.254430 *   0.00000    1.000000    
     61 C     c    0.572990 *  0.809180 *  0.390000 *   0.00000    1.000000    
     62 C     c    0.027000 *  0.208410 *  0.602340 *   0.00000    1.000000    
     63 C     c    0.640770 *  0.641500 *  0.932270 *   0.00000    1.000000    
     64 C     c    0.588560 *  0.824650 *  0.852350 *   0.00000    1.000000    
--------------------------------------------------------------------------------


  Constraints : 

--------------------------------------------------------------------------------
  Constraint no.      Unconstrained     Constrained    Coefficient    Offset
                         Variable         Variable
--------------------------------------------------------------------------------
           1              Strain 1        Strain 2       1.00000      0.0000
           2              Strain 1        Strain 3       1.00000      0.0000
--------------------------------------------------------------------------------


********************************************************************************
*  General input information                                                   *
********************************************************************************

  Species output for all configurations : 

--------------------------------------------------------------------------------
  Species    Type    Atomic    Atomic    Charge       Radii (Angs)     Library
                     Number     Mass       (e)     Cova   Ionic  VDW   Symbol
--------------------------------------------------------------------------------
    C        Core        6      12.01   0.000000   0.770  0.000  1.530          
--------------------------------------------------------------------------------


  Lattice summation method               =    Ewald          (3-D)
                                         =    Parry          (2-D)
                                         =    Saunders et al (1-D)
  Accuracy factor for lattice sums       =   12.000


  Analytic derivatives to be used

  Time limit = Infinity

  Maximum range for interatomic potentials =    100000.000000 Angstroms

  Brenner et al 2002 potential to be used with explicit splines for P


********************************************************************************
*  Output for configuration   1                                                *
********************************************************************************


  Components of energy : 

--------------------------------------------------------------------------------
  Interatomic potentials     =           0.00000000 eV    
  Brenner potentials         =        -428.45065076 eV    
  Monopole - monopole (real) =           0.00000000 eV    
  Monopole - monopole (recip)=           0.00000000 eV    
  Monopole - monopole (total)=           0.00000000 eV    
--------------------------------------------------------------------------------
  Total lattice energy       =        -428.45065076 eV    
--------------------------------------------------------------------------------
  Total lattice energy       =          -41338.9383 kJ/(mole unit cells)
--------------------------------------------------------------------------------


  Number of variables =      189

  Maximum number of calculations  =          2000
  Maximum Hessian update interval =            10
  Maximum step size               =   1.000000000
  Maximum parameter tolerance     =   0.000010000
  Maximum function  tolerance     =   0.000010000
  Maximum gradient  tolerance     =   0.001000000
  Maximum gradient  component     =   0.010000000

  Symmetry not applied to optimisation

  Conjugate gradient optimiser to be used

  Lower half triangular hessian to be used

  Start of bulk optimisation :

  Cycle:      0 Energy:      -428.450651  Gnorm:      0.037073  CPU:    0.049
  Cycle:      1 Energy:      -428.452363  Gnorm:      0.013505  CPU:    0.080
  Cycle:      2 Energy:      -428.452674  Gnorm:      0.010653  CPU:    0.089
  Cycle:      3 Energy:      -428.453076  Gnorm:      0.010434  CPU:    0.096
  Cycle:      4 Energy:      -428.453281  Gnorm:      0.008513  CPU:    0.108
  Cycle:      5 Energy:      -428.453510  Gnorm:      0.008094  CPU:    0.127
  Cycle:      6 Energy:      -428.453639  Gnorm:      0.006574  CPU:    0.135
  Cycle:      7 Energy:      -428.453767  Gnorm:      0.006052  CPU:    0.141
  Cycle:      8 Energy:      -428.453847  Gnorm:      0.005103  CPU:    0.165
  Cycle:      9 Energy:      -428.453920  Gnorm:      0.004764  CPU:    0.173
  Cycle:     10 Energy:      -428.453944  Gnorm:      0.002245  CPU:    0.179
  Cycle:     11 Energy:      -428.453968  Gnorm:      0.002744  CPU:    0.194
  Cycle:     12 Energy:      -428.453990  Gnorm:      0.002437  CPU:    0.212
  Cycle:     13 Energy:      -428.454014  Gnorm:      0.002228  CPU:    0.221
  Cycle:     14 Energy:      -428.454026  Gnorm:      0.002067  CPU:    0.227
  Cycle:     15 Energy:      -428.454042  Gnorm:      0.001841  CPU:    0.248
  Cycle:     16 Energy:      -428.454049  Gnorm:      0.001563  CPU:    0.260
  Cycle:     17 Energy:      -428.454060  Gnorm:      0.001628  CPU:    0.268
  Cycle:     18 Energy:      -428.454069  Gnorm:      0.001720  CPU:    0.274
  Cycle:     19 Energy:      -428.454077  Gnorm:      0.001183  CPU:    0.299
  Cycle:     20 Energy:      -428.454078  Gnorm:      0.000788  CPU:    0.308
  Cycle:     21 Energy:      -428.454079  Gnorm:      0.000617  CPU:    0.314
  Cycle:     22 Energy:      -428.454080  Gnorm:      0.000578  CPU:    0.319
  Cycle:     23 Energy:      -428.454080  Gnorm:      0.000547  CPU:    0.344
  Cycle:     24 Energy:      -428.454080  Gnorm:      0.000521  CPU:    0.353
  Cycle:     25 Energy:      -428.454081  Gnorm:      0.000489  CPU:    0.359
  Cycle:     26 Energy:      -428.454081  Gnorm:      0.000473  CPU:    0.365
  Cycle:     27 Energy:      -428.454081  Gnorm:      0.000465  CPU:    0.390
  Cycle:     28 Energy:      -428.454081  Gnorm:      0.000455  CPU:    0.399
  Cycle:     29 Energy:      -428.454082  Gnorm:      0.000447  CPU:    0.405
  Cycle:     30 Energy:      -428.454082  Gnorm:      0.000443  CPU:    0.415
  Cycle:     31 Energy:      -428.454082  Gnorm:      0.000441  CPU:    0.436
  Cycle:     32 Energy:      -428.454082  Gnorm:      0.000441  CPU:    0.444
  Cycle:     33 Energy:      -428.454085  Gnorm:      0.000416  CPU:    0.470
  Cycle:     34 Energy:      -428.454088  Gnorm:      0.000601  CPU:    0.480
  Cycle:     35 Energy:      -428.454090  Gnorm:      0.000678  CPU:    0.487
  Cycle:     36 Energy:      -428.454091  Gnorm:      0.000544  CPU:    0.492
  Cycle:     37 Energy:      -428.454094  Gnorm:      0.001165  CPU:    0.514
  Cycle:     38 Energy:      -428.454094  Gnorm:      0.001429  CPU:    0.524
  Cycle:     39 Energy:      -428.454094  Gnorm:      0.000704  CPU:    0.531
  Cycle:     40 Energy:      -428.454094  Gnorm:      0.000692  CPU:    0.563
  Cycle:     41 Energy:      -428.454094  Gnorm:      0.000689  CPU:    0.570
  Cycle:     42 Energy:      -428.454094  Gnorm:      0.000689  CPU:    0.604
  Cycle:     43 Energy:      -428.454094  Gnorm:      0.000690  CPU:    0.631


  **** Optimisation achieved ****


  Final energy =    -428.45409443 eV
  Final Gnorm  =       0.00069037

  Components of energy : 

--------------------------------------------------------------------------------
  Interatomic potentials     =           0.00000000 eV    
  Brenner potentials         =        -428.45409443 eV    
  Monopole - monopole (real) =           0.00000000 eV    
  Monopole - monopole (recip)=           0.00000000 eV    
  Monopole - monopole (total)=           0.00000000 eV    
--------------------------------------------------------------------------------
  Total lattice energy       =        -428.45409443 eV    
--------------------------------------------------------------------------------
  Total lattice energy       =          -41339.2706 kJ/(mole unit cells)
--------------------------------------------------------------------------------

  Final fractional coordinates of atoms :

--------------------------------------------------------------------------------
   No.  Atomic        x           y          z          Radius
        Label       (Frac)      (Frac)     (Frac)       (Angs) 
--------------------------------------------------------------------------------
     1  C     c     0.025100    0.587150    0.365320    0.000000
     2  C     c     0.261774    0.102378    0.107731    0.000000
     3  C     c     0.100016    0.438684    0.267551    0.000000
     4  C     c     0.879020    0.966954    0.452789    0.000000
     5  C     c     0.477063    0.917241    0.988855    0.000000
     6  C     c     0.786813    0.447424    0.220383    0.000000
     7  C     c     0.922638    0.637159    0.717179    0.000000
     8  C     c     0.810264    0.554198    0.590206    0.000000
     9  C     c     0.131936    0.380158    0.638974    0.000000
    10  C     c     0.404433    0.764482    0.117665    0.000000
    11  C     c     0.889558    0.256674    0.746542    0.000000
    12  C     c     0.570308    0.899986    0.557391    0.000000
    13  C     c     0.425631    0.240951    0.632415    0.000000
    14  C     c     0.200377    0.983585    0.798440    0.000000
    15  C     c     0.522843    0.608497    0.406726    0.000000
    16  C     c     0.987849    0.938183    0.121019    0.000000
    17  C     c     0.135225    0.821516    0.858213    0.000000
    18  C     c     0.348029    0.689957    0.662648    0.000000
    19  C     c     0.738121    0.384002    0.683435    0.000000
    20  C     c     0.046028    0.258474    0.266086    0.000000
    21  C     c     0.936097    0.173607    0.419903    0.000000
    22  C     c     0.843391    0.615736    0.415060    0.000000
    23  C     c     0.478838    0.818557    0.689822    0.000000
    24  C     c     0.794155    0.297203    0.327713    0.000000
    25  C     c     0.669356    0.160611    0.016948    0.000000
    26  C     c     0.520286    0.604601    0.088481    0.000000
    27  C     c     0.605971    0.280648    0.571422    0.000000
    28  C     c     0.634108    0.989256    0.118841    0.000000
    29  C     c     0.479453    0.916103    0.251105    0.000000
    30  C     c     0.339509    0.056586    0.923096    0.000000
    31  C     c     0.810187    0.112731    0.883858    0.000000
    32  C     c     0.867281    0.766977    0.838033    0.000000
    33  C     c     0.307525    0.395431    0.576152    0.000000
    34  C     c     0.226820    0.687173    0.123435    0.000000
    35  C     c     0.071586    0.510335    0.779421    0.000000
    36  C     c     0.326159    0.102418    0.509412    0.000000
    37  C     c     0.121511    0.741265    0.423819    0.000000
    38  C     c     0.542741    0.314598    0.957025    0.000000
    39  C     c     0.063235    0.131620    0.109112    0.000000
    40  C     c     0.769634    0.941903    0.796706    0.000000
    41  C     c     0.392775    0.558197    0.534344    0.000000
    42  C     c     0.068159    0.896739    0.498586    0.000000
    43  C     c     0.001209    0.428950    0.954802    0.000000
    44  C     c     0.238543    0.500895    0.156324    0.000000
    45  C     c     0.196040    0.671994    0.768345    0.000000
    46  C     c     0.892489    0.519736    0.081803    0.000000
    47  C     c     0.800238    0.862802    0.155195    0.000000
    48  C     c     0.985400    0.222188    0.949098    0.000000
    49  C     c     0.775719    0.805304    0.350018    0.000000
    50  C     c     0.821229    0.700292    0.025318    0.000000
    51  C     c     0.159054    0.041610    0.607836    0.000000
    52  C     c     0.476396    0.263682    0.276589    0.000000
    53  C     c     0.435038    0.399132    0.122771    0.000000
    54  C     c     0.365957    0.086713    0.294177    0.000000
    55  C     c     0.624231    0.266466    0.391830    0.000000
    56  C     c     0.422422    0.211140    0.832195    0.000000
    57  C     c     0.643846    0.455537    0.850336    0.000000
    58  C     c     0.737291    0.967153    0.602621    0.000000
    59  C     c     0.099642    0.802667    0.043521    0.000000
    60  C     c     0.617547    0.536164    0.254486    0.000000
    61  C     c     0.573132    0.808996    0.389841    0.000000
    62  C     c     0.027060    0.208688    0.602452    0.000000
    63  C     c     0.640525    0.641195    0.932389    0.000000
    64  C     c     0.588489    0.824399    0.852437    0.000000
--------------------------------------------------------------------------------

  Final internal derivatives :

--------------------------------------------------------------------------------
   No.  Atomic          a             b             c           Radius
        Label          (eV)          (eV)          (eV)        (eV/Angs)
--------------------------------------------------------------------------------
      1 C     c       0.000000      0.000000      0.000000      0.000000
      2 C     c      -0.007013     -0.001736      0.002103      0.000000
      3 C     c      -0.004314      0.003781     -0.003852      0.000000
      4 C     c      -0.004102     -0.004444      0.007353      0.000000
      5 C     c      -0.011546      0.003644     -0.029654      0.000000
      6 C     c      -0.004606      0.002969      0.002703      0.000000
      7 C     c       0.007563      0.007589      0.002217      0.000000
      8 C     c       0.006129     -0.000509      0.004522      0.000000
      9 C     c      -0.002190      0.002327      0.001120      0.000000
     10 C     c      -0.006794     -0.000967     -0.001380      0.000000
     11 C     c       0.000448     -0.001382      0.004855      0.000000
     12 C     c      -0.001865      0.006309     -0.000988      0.000000
     13 C     c       0.007800      0.000874     -0.001625      0.000000
     14 C     c      -0.001067      0.005694      0.000051      0.000000
     15 C     c      -0.003004      0.006578     -0.006030      0.000000
     16 C     c       0.005549      0.003232      0.003006      0.000000
     17 C     c       0.000581      0.002562     -0.005207      0.000000
     18 C     c      -0.007123      0.007526      0.001694      0.000000
     19 C     c       0.003134      0.004561     -0.004705      0.000000
     20 C     c      -0.053675      0.009386      0.017992      0.000000
     21 C     c      -0.008691      0.004251     -0.003940      0.000000
     22 C     c      -0.012215      0.000764      0.000328      0.000000
     23 C     c      -0.003770      0.000306      0.004719      0.000000
     24 C     c       0.070591     -0.005562     -0.018252      0.000000
     25 C     c      -0.002579      0.012925     -0.006295      0.000000
     26 C     c       0.001079     -0.004163      0.011861      0.000000
     27 C     c       0.001687      0.006227      0.007582      0.000000
     28 C     c      -0.005951     -0.000188     -0.001183      0.000000
     29 C     c      -0.004953      0.009929      0.035314      0.000000
     30 C     c       0.002393     -0.002873      0.001475      0.000000
     31 C     c       0.003620      0.000392     -0.000231      0.000000
     32 C     c       0.006678      0.004427      0.004946      0.000000
     33 C     c      -0.002108      0.006550      0.006164      0.000000
     34 C     c       0.002775     -0.001363     -0.000105      0.000000
     35 C     c       0.006364     -0.000604     -0.002725      0.000000
     36 C     c       0.000852      0.007997      0.004935      0.000000
     37 C     c      -0.000679      0.003613     -0.003736      0.000000
     38 C     c      -0.000388     -0.001043      0.011620      0.000000
     39 C     c       0.002940      0.000955     -0.000021      0.000000
     40 C     c       0.000845      0.004751      0.002805      0.000000
     41 C     c      -0.000979      0.011657      0.006296      0.000000
     42 C     c      -0.004326     -0.005918      0.004202      0.000000
     43 C     c      -0.005306      0.007156      0.002410      0.000000
     44 C     c      -0.001824      0.000397     -0.000367      0.000000
     45 C     c      -0.003685      0.002241     -0.003220      0.000000
     46 C     c      -0.001550      0.004130     -0.003039      0.000000
     47 C     c      -0.008819      0.001759     -0.011682      0.000000
     48 C     c       0.000235      0.005765      0.008980      0.000000
     49 C     c      -0.000873     -0.004867      0.008536      0.000000
     50 C     c       0.005479      0.004910     -0.000342      0.000000
     51 C     c       0.001875     -0.002792      0.002961      0.000000
     52 C     c      -0.008889      0.004091     -0.006853      0.000000
     53 C     c       0.018776      0.019575      0.017339      0.000000
     54 C     c       0.003352      0.002753      0.002909      0.000000
     55 C     c      -0.008711      0.001340      0.017342      0.000000
     56 C     c      -0.004894      0.003709     -0.004431      0.000000
     57 C     c      -0.000352      0.012218      0.002607      0.000000
     58 C     c       0.004080     -0.004211      0.004596      0.000000
     59 C     c      -0.000714      0.000322     -0.000079      0.000000
     60 C     c      -0.016627     -0.001576     -0.016176      0.000000
     61 C     c      -0.004764     -0.011489      0.006106      0.000000
     62 C     c       0.007470      0.005007      0.001766      0.000000
     63 C     c      -0.005839      0.004751     -0.004734      0.000000
     64 C     c       0.000659      0.001816      0.002118      0.000000
--------------------------------------------------------------------------------
  Maximum abs         0.070591      0.019575      0.035314      0.000000
--------------------------------------------------------------------------------


  Time to end of optimisation =       0.6535 seconds


  Peak dynamic memory used =       1.98 MB 


  Timing analysis for GULP :

--------------------------------------------------------------------------------
  Task / Subroutine                                          Time (Seconds)
--------------------------------------------------------------------------------
  Calculation of Brenner energy and derivatives                   0.6182
--------------------------------------------------------------------------------
  Total CPU time                                                  0.6535
--------------------------------------------------------------------------------


  CIF file written as opti_0.9900.cif


  Job Finished at 23:35.14 10th August     2020                               

