********************************************************************************
*                       GENERAL UTILITY LATTICE PROGRAM                        *
*                                 Julian Gale                                  *
*                       Curtin Institute for Computation                       *
*                    School of Molecular and Life Sciences                     *
*                    Curtin University, Western Australia                      *
********************************************************************************
* Version = 5.2.0 * Last modified =  17th December 2019                        *
********************************************************************************
*  optimise     - perform optimisation run                                     *
*  conv         - constant volume calculation                                  *
*  isotropic    - only isotropic cell expansion to be allowed                  *
*  lbfgs        - use limited memory BFGS update                               *
********************************************************************************
* ASE calculation                                                              *
********************************************************************************


  Job Started  at 16:20.06 12th August     2020                               

  Number of CPUs =     1


  Total number of configurations input =      1

********************************************************************************
*  Input for Configuration =   1                                               *
********************************************************************************

  Formula = C64                                                         

  Number of irreducible atoms/shells =      64


  Total number atoms/shells =      64

  Dimensionality = 3               :  Bulk   



  Cartesian lattice vectors (Angstroms) :

        7.514043    0.000000    0.000000
        0.000000    7.514043    0.000000
        0.000000    0.000000    7.514043

  Cell parameters (Angstroms/Degrees):

  a =       7.5140    alpha =  90.0000
  b =       7.5140    beta  =  90.0000
  c =       7.5140    gamma =  90.0000

  Initial cell volume =         424.249196 Angs**3

  Temperature of configuration =   0.00     K 

  Pressure of configuration =         0.000 GPa 

  Fractional coordinates of asymmetric unit :

--------------------------------------------------------------------------------
   No.  Atomic       x           y          z         Charge      Occupancy
        Label      (Frac)      (Frac)     (Frac)        (e)         (Frac)  
--------------------------------------------------------------------------------
      1 C     c    0.082860    0.546420    0.420470     0.00000    1.000000    
      2 C     c    0.300470 *  0.098480 *  0.158050 *   0.00000    1.000000    
      3 C     c    0.135430 *  0.397320 *  0.321400 *   0.00000    1.000000    
      4 C     c    0.905490 *  0.925920 *  0.500530 *   0.00000    1.000000    
      5 C     c    0.496470 *  0.888330 *  0.033250 *   0.00000    1.000000    
      6 C     c    0.816780 *  0.441270 *  0.290230 *   0.00000    1.000000    
      7 C     c    0.945770 *  0.607820 *  0.761780 *   0.00000    1.000000    
      8 C     c    0.840320 *  0.519590 *  0.629820 *   0.00000    1.000000    
      9 C     c    0.152890 *  0.348160 *  0.688790 *   0.00000    1.000000    
     10 C     c    0.417360 *  0.733360 *  0.168120 *   0.00000    1.000000    
     11 C     c    0.912950 *  0.222370 *  0.789680 *   0.00000    1.000000    
     12 C     c    0.594660 *  0.873970 *  0.593910 *   0.00000    1.000000    
     13 C     c    0.450710 *  0.212820 *  0.666970 *   0.00000    1.000000    
     14 C     c    0.222920 *  0.959920 *  0.855440 *   0.00000    1.000000    
     15 C     c    0.544790 *  0.575680 *  0.447490 *   0.00000    1.000000    
     16 C     c    0.011880 *  0.923390 *  0.168010 *   0.00000    1.000000    
     17 C     c    0.170450 *  0.793090 *  0.921890 *   0.00000    1.000000    
     18 C     c    0.324040 *  0.692350 *  0.651930 *   0.00000    1.000000    
     19 C     c    0.762670 *  0.347470 *  0.713160 *   0.00000    1.000000    
     20 C     c    0.064920 *  0.226020 *  0.316700 *   0.00000    1.000000    
     21 C     c    0.939020 *  0.137230 *  0.452960 *   0.00000    1.000000    
     22 C     c    0.882990 *  0.573160 *  0.439880 *   0.00000    1.000000    
     23 C     c    0.483380 *  0.799280 *  0.721410 *   0.00000    1.000000    
     24 C     c    0.800220 *  0.235140 *  0.302270 *   0.00000    1.000000    
     25 C     c    0.720270 *  0.151940 *  0.111960 *   0.00000    1.000000    
     26 C     c    0.529470 *  0.570940 *  0.123160 *   0.00000    1.000000    
     27 C     c    0.623950 *  0.264260 *  0.582370 *   0.00000    1.000000    
     28 C     c    0.661500 *  0.958000 *  0.159510 *   0.00000    1.000000    
     29 C     c    0.510700 *  0.875200 *  0.296820 *   0.00000    1.000000    
     30 C     c    0.368170 *  0.034740 *  0.972170 *   0.00000    1.000000    
     31 C     c    0.838010 *  0.084970 *  0.940300 *   0.00000    1.000000    
     32 C     c    0.887020 *  0.741300 *  0.878490 *   0.00000    1.000000    
     33 C     c    0.329920 *  0.369220 *  0.625000 *   0.00000    1.000000    
     34 C     c    0.234910 *  0.665930 *  0.237200 *   0.00000    1.000000    
     35 C     c    0.097820 *  0.482080 *  0.828230 *   0.00000    1.000000    
     36 C     c    0.357300 *  0.059430 *  0.561620 *   0.00000    1.000000    
     37 C     c    0.205560 *  0.709380 *  0.458790 *   0.00000    1.000000    
     38 C     c    0.577830 *  0.283650 *  0.000200 *   0.00000    1.000000    
     39 C     c    0.096250 *  0.111340 *  0.154850 *   0.00000    1.000000    
     40 C     c    0.783300 *  0.916310 *  0.845700 *   0.00000    1.000000    
     41 C     c    0.406360 *  0.526900 *  0.561540 *   0.00000    1.000000    
     42 C     c    0.094690 *  0.865200 *  0.548260 *   0.00000    1.000000    
     43 C     c    0.072230 *  0.412820 *  0.017680 *   0.00000    1.000000    
     44 C     c    0.238240 *  0.455410 *  0.151960 *   0.00000    1.000000    
     45 C     c    0.203740 *  0.654420 *  0.807420 *   0.00000    1.000000    
     46 C     c    0.918830 *  0.504530 *  0.126220 *   0.00000    1.000000    
     47 C     c    0.828050 *  0.833420 *  0.193820 *   0.00000    1.000000    
     48 C     c    0.017560 *  0.212950 *  0.992570 *   0.00000    1.000000    
     49 C     c    0.812710 *  0.769570 *  0.389370 *   0.00000    1.000000    
     50 C     c    0.835940 *  0.673740 *  0.062610 *   0.00000    1.000000    
     51 C     c    0.185060 *  0.009430 *  0.659170 *   0.00000    1.000000    
     52 C     c    0.457630 *  0.216810 *  0.274090 *   0.00000    1.000000    
     53 C     c    0.431410 *  0.378370 *  0.134190 *   0.00000    1.000000    
     54 C     c    0.387750 *  0.028060 *  0.356610 *   0.00000    1.000000    
     55 C     c    0.620120 *  0.243470 *  0.401380 *   0.00000    1.000000    
     56 C     c    0.467290 *  0.174440 *  0.869580 *   0.00000    1.000000    
     57 C     c    0.671060 *  0.425450 *  0.885090 *   0.00000    1.000000    
     58 C     c    0.760010 *  0.942560 *  0.648250 *   0.00000    1.000000    
     59 C     c    0.130720 *  0.786950 *  0.105540 *   0.00000    1.000000    
     60 C     c    0.614630 *  0.488110 *  0.292770 *   0.00000    1.000000    
     61 C     c    0.609350 *  0.770250 *  0.432430 *   0.00000    1.000000    
     62 C     c    0.047380 *  0.170810 *  0.640760 *   0.00000    1.000000    
     63 C     c    0.654620 *  0.612400 *  0.969500 *   0.00000    1.000000    
     64 C     c    0.597000 *  0.795710 *  0.888070 *   0.00000    1.000000    
--------------------------------------------------------------------------------


  Constraints : 

--------------------------------------------------------------------------------
  Constraint no.      Unconstrained     Constrained    Coefficient    Offset
                         Variable         Variable
--------------------------------------------------------------------------------
           1              Strain 1        Strain 2       1.00000      0.0000
           2              Strain 1        Strain 3       1.00000      0.0000
--------------------------------------------------------------------------------


********************************************************************************
*  General input information                                                   *
********************************************************************************

  Species output for all configurations : 

--------------------------------------------------------------------------------
  Species    Type    Atomic    Atomic    Charge       Radii (Angs)     Library
                     Number     Mass       (e)     Cova   Ionic  VDW   Symbol
--------------------------------------------------------------------------------
    C        Core        6      12.01   0.000000   0.770  0.000  1.530          
--------------------------------------------------------------------------------


  Lattice summation method               =    Ewald          (3-D)
                                         =    Parry          (2-D)
                                         =    Saunders et al (1-D)
  Accuracy factor for lattice sums       =   12.000


  Analytic derivatives to be used

  Time limit = Infinity

  Maximum range for interatomic potentials =    100000.000000 Angstroms

  Brenner et al 2002 potential to be used with explicit splines for P


********************************************************************************
*  Output for configuration   1                                                *
********************************************************************************


  Components of energy : 

--------------------------------------------------------------------------------
  Interatomic potentials     =           0.00000000 eV    
  Brenner potentials         =        -425.30622220 eV    
  Monopole - monopole (real) =           0.00000000 eV    
  Monopole - monopole (recip)=           0.00000000 eV    
  Monopole - monopole (total)=           0.00000000 eV    
--------------------------------------------------------------------------------
  Total lattice energy       =        -425.30622220 eV    
--------------------------------------------------------------------------------
  Total lattice energy       =          -41035.5490 kJ/(mole unit cells)
--------------------------------------------------------------------------------


  Number of variables =      189

  Maximum number of calculations  =          2000
  Maximum Hessian update interval =            10
  Maximum step size               =   1.000000000
  Maximum parameter tolerance     =   0.000010000
  Maximum function  tolerance     =   0.000010000
  Maximum gradient  tolerance     =   0.001000000
  Maximum gradient  component     =   0.010000000

  Maximum LM gradient tolerance   =   0.900000000
  Symmetry not applied to optimisation

  Limited Memory BFGS to be used of order   10

  BFGS hessian update to be used

  Lower half triangular hessian to be used

  Start of bulk optimisation :

  Cycle:      0 Energy:      -425.306222  Gnorm:      0.045813  CPU:    0.024
  Cycle:      1 Energy:      -425.308577  Gnorm:      0.015619  CPU:    0.031
  Cycle:      2 Energy:      -425.308941  Gnorm:      0.008947  CPU:    0.035
  Cycle:      3 Energy:      -425.309232  Gnorm:      0.006511  CPU:    0.038
  Cycle:      4 Energy:      -425.309418  Gnorm:      0.007510  CPU:    0.059
  Cycle:      5 Energy:      -425.309620  Gnorm:      0.005533  CPU:    0.067
  Cycle:      6 Energy:      -425.309736  Gnorm:      0.005019  CPU:    0.072
  Cycle:      7 Energy:      -425.309817  Gnorm:      0.003827  CPU:    0.076
  Cycle:      8 Energy:      -425.309875  Gnorm:      0.002946  CPU:    0.081
  Cycle:      9 Energy:      -425.309926  Gnorm:      0.003036  CPU:    0.088
  Cycle:     10 Energy:      -425.309947  Gnorm:      0.004715  CPU:    0.105
  Cycle:     11 Energy:      -425.309975  Gnorm:      0.001765  CPU:    0.113
  Cycle:     12 Energy:      -425.309986  Gnorm:      0.001459  CPU:    0.118
  Cycle:     13 Energy:      -425.310000  Gnorm:      0.001501  CPU:    0.122
  Cycle:     14 Energy:      -425.310017  Gnorm:      0.001236  CPU:    0.141
  Cycle:     15 Energy:      -425.310021  Gnorm:      0.001585  CPU:    0.152
  Cycle:     16 Energy:      -425.310028  Gnorm:      0.000798  CPU:    0.157
  Cycle:     17 Energy:      -425.310031  Gnorm:      0.000733  CPU:    0.161
  Cycle:     18 Energy:      -425.310034  Gnorm:      0.000779  CPU:    0.165
  Cycle:     19 Energy:      -425.310036  Gnorm:      0.000831  CPU:    0.168
  Cycle:     20 Energy:      -425.310038  Gnorm:      0.000584  CPU:    0.191
  Cycle:     21 Energy:      -425.310040  Gnorm:      0.000603  CPU:    0.197
  Cycle:     22 Energy:      -425.310043  Gnorm:      0.000975  CPU:    0.202
  Cycle:     23 Energy:      -425.310045  Gnorm:      0.000616  CPU:    0.206
  Cycle:     24 Energy:      -425.310046  Gnorm:      0.000497  CPU:    0.209
  Cycle:     25 Energy:      -425.310049  Gnorm:      0.000503  CPU:    0.212
  Cycle:     26 Energy:      -425.310050  Gnorm:      0.001367  CPU:    0.232
  Cycle:     27 Energy:      -425.310053  Gnorm:      0.000681  CPU:    0.239
  Cycle:     28 Energy:      -425.310055  Gnorm:      0.000560  CPU:    0.245
  Cycle:     29 Energy:      -425.310057  Gnorm:      0.000735  CPU:    0.250
  Cycle:     30 Energy:      -425.310060  Gnorm:      0.000926  CPU:    0.254
  Cycle:     31 Energy:      -425.310063  Gnorm:      0.001292  CPU:    0.269
  Cycle:     32 Energy:      -425.310066  Gnorm:      0.000742  CPU:    0.283
  Cycle:     33 Energy:      -425.310070  Gnorm:      0.000684  CPU:    0.288
  Cycle:     34 Energy:      -425.310074  Gnorm:      0.001056  CPU:    0.293
  Cycle:     35 Energy:      -425.310079  Gnorm:      0.001484  CPU:    0.297
  Cycle:     36 Energy:      -425.310083  Gnorm:      0.000867  CPU:    0.300
  Cycle:     37 Energy:      -425.310087  Gnorm:      0.000801  CPU:    0.306
  Cycle:     38 Energy:      -425.310091  Gnorm:      0.000977  CPU:    0.324
  Cycle:     39 Energy:      -425.310095  Gnorm:      0.001395  CPU:    0.330
  Cycle:     40 Energy:      -425.310099  Gnorm:      0.000808  CPU:    0.336
  Cycle:     41 Energy:      -425.310103  Gnorm:      0.000786  CPU:    0.347
  Cycle:     42 Energy:      -425.310107  Gnorm:      0.000821  CPU:    0.362
  Cycle:     43 Energy:      -425.310112  Gnorm:      0.001821  CPU:    0.367
  Cycle:     44 Energy:      -425.310117  Gnorm:      0.000913  CPU:    0.372
  Cycle:     45 Energy:      -425.310118  Gnorm:      0.000545  CPU:    0.376
  Cycle:     46 Energy:      -425.310120  Gnorm:      0.000538  CPU:    0.392
  Cycle:     47 Energy:      -425.310122  Gnorm:      0.000911  CPU:    0.403
  Cycle:     48 Energy:      -425.310124  Gnorm:      0.000585  CPU:    0.408
  Cycle:     49 Energy:      -425.310126  Gnorm:      0.000341  CPU:    0.412
  Cycle:     50 Energy:      -425.310126  Gnorm:      0.000495  CPU:    0.417
  Cycle:     51 Energy:      -425.310127  Gnorm:      0.000409  CPU:    0.420
  Cycle:     52 Energy:      -425.310127  Gnorm:      0.000258  CPU:    0.426
  Cycle:     53 Energy:      -425.310128  Gnorm:      0.000291  CPU:    0.444
  Cycle:     54 Energy:      -425.310128  Gnorm:      0.000215  CPU:    0.452
  Cycle:     55 Energy:      -425.310128  Gnorm:      0.000185  CPU:    0.456
  Cycle:     56 Energy:      -425.310128  Gnorm:      0.000313  CPU:    0.460


  **** Optimisation achieved ****


  Final energy =    -425.31012852 eV
  Final Gnorm  =       0.00018308

  Components of energy : 

--------------------------------------------------------------------------------
  Interatomic potentials     =           0.00000000 eV    
  Brenner potentials         =        -425.31012852 eV    
  Monopole - monopole (real) =           0.00000000 eV    
  Monopole - monopole (recip)=           0.00000000 eV    
  Monopole - monopole (total)=           0.00000000 eV    
--------------------------------------------------------------------------------
  Total lattice energy       =        -425.31012852 eV    
--------------------------------------------------------------------------------
  Total lattice energy       =          -41035.9259 kJ/(mole unit cells)
--------------------------------------------------------------------------------

  Final fractional coordinates of atoms :

--------------------------------------------------------------------------------
   No.  Atomic        x           y          z          Radius
        Label       (Frac)      (Frac)     (Frac)       (Angs) 
--------------------------------------------------------------------------------
     1  C     c     0.082860    0.546420    0.420470    0.000000
     2  C     c     0.300867    0.098355    0.158620    0.000000
     3  C     c     0.135141    0.397371    0.321428    0.000000
     4  C     c     0.905811    0.925947    0.501103    0.000000
     5  C     c     0.496911    0.888147    0.033911    0.000000
     6  C     c     0.816692    0.441154    0.290916    0.000000
     7  C     c     0.945940    0.607518    0.762465    0.000000
     8  C     c     0.840750    0.519321    0.630419    0.000000
     9  C     c     0.153345    0.348096    0.689604    0.000000
    10  C     c     0.417654    0.733300    0.168705    0.000000
    11  C     c     0.913215    0.222142    0.790261    0.000000
    12  C     c     0.595229    0.873155    0.594613    0.000000
    13  C     c     0.450968    0.212849    0.667510    0.000000
    14  C     c     0.223602    0.959701    0.855841    0.000000
    15  C     c     0.544821    0.575697    0.447904    0.000000
    16  C     c     0.012380    0.923110    0.168342    0.000000
    17  C     c     0.171020    0.793033    0.922282    0.000000
    18  C     c     0.323971    0.692195    0.652106    0.000000
    19  C     c     0.762920    0.347323    0.713757    0.000000
    20  C     c     0.064853    0.226091    0.316788    0.000000
    21  C     c     0.939399    0.137308    0.453342    0.000000
    22  C     c     0.883166    0.573019    0.440491    0.000000
    23  C     c     0.483774    0.798624    0.721924    0.000000
    24  C     c     0.800433    0.235062    0.303109    0.000000
    25  C     c     0.720651    0.151687    0.112538    0.000000
    26  C     c     0.529712    0.570941    0.123812    0.000000
    27  C     c     0.624123    0.264198    0.582901    0.000000
    28  C     c     0.661982    0.957750    0.159996    0.000000
    29  C     c     0.511097    0.875152    0.297187    0.000000
    30  C     c     0.368649    0.034554    0.972728    0.000000
    31  C     c     0.838351    0.084729    0.940735    0.000000
    32  C     c     0.886885    0.740756    0.879105    0.000000
    33  C     c     0.330273    0.369252    0.625810    0.000000
    34  C     c     0.235227    0.665771    0.237820    0.000000
    35  C     c     0.098045    0.482020    0.828883    0.000000
    36  C     c     0.357558    0.059612    0.561967    0.000000
    37  C     c     0.205656    0.709182    0.459121    0.000000
    38  C     c     0.578073    0.283521    0.000717    0.000000
    39  C     c     0.096585    0.111192    0.155259    0.000000
    40  C     c     0.783641    0.915963    0.846283    0.000000
    41  C     c     0.406570    0.526797    0.562048    0.000000
    42  C     c     0.095074    0.865273    0.548602    0.000000
    43  C     c     0.072334    0.412726    0.018345    0.000000
    44  C     c     0.238655    0.455522    0.152541    0.000000
    45  C     c     0.203589    0.654499    0.807626    0.000000
    46  C     c     0.918874    0.504289    0.126945    0.000000
    47  C     c     0.828534    0.833181    0.194304    0.000000
    48  C     c     0.017609    0.212797    0.992980    0.000000
    49  C     c     0.812940    0.769501    0.389886    0.000000
    50  C     c     0.836111    0.673425    0.063251    0.000000
    51  C     c     0.185477    0.009393    0.659576    0.000000
    52  C     c     0.457887    0.216703    0.274381    0.000000
    53  C     c     0.431861    0.378419    0.134875    0.000000
    54  C     c     0.388225    0.028042    0.356900    0.000000
    55  C     c     0.620307    0.243353    0.402014    0.000000
    56  C     c     0.467631    0.174293    0.870164    0.000000
    57  C     c     0.671306    0.425298    0.885710    0.000000
    58  C     c     0.760408    0.941759    0.648872    0.000000
    59  C     c     0.131375    0.786919    0.105889    0.000000
    60  C     c     0.614734    0.488222    0.293317    0.000000
    61  C     c     0.609547    0.770187    0.432849    0.000000
    62  C     c     0.047743    0.170842    0.641399    0.000000
    63  C     c     0.654820    0.612155    0.970230    0.000000
    64  C     c     0.597199    0.795367    0.888720    0.000000
--------------------------------------------------------------------------------

  Final internal derivatives :

--------------------------------------------------------------------------------
   No.  Atomic          a             b             c           Radius
        Label          (eV)          (eV)          (eV)        (eV/Angs)
--------------------------------------------------------------------------------
      1 C     c       0.000000      0.000000      0.000000      0.000000
      2 C     c       0.001957      0.000293      0.000118      0.000000
      3 C     c      -0.001307      0.002566     -0.000002      0.000000
      4 C     c       0.002524     -0.000820      0.000894      0.000000
      5 C     c       0.002051      0.003164     -0.000589      0.000000
      6 C     c      -0.001575      0.001818      0.000087      0.000000
      7 C     c      -0.009009      0.002034      0.000279      0.000000
      8 C     c       0.001497      0.003675      0.000701      0.000000
      9 C     c      -0.000665      0.000614      0.003379      0.000000
     10 C     c      -0.005355      0.001952     -0.001274      0.000000
     11 C     c       0.002557     -0.002120      0.001395      0.000000
     12 C     c      -0.000041      0.002100     -0.001507      0.000000
     13 C     c       0.001197      0.000157     -0.002112      0.000000
     14 C     c      -0.001504      0.001606     -0.000524      0.000000
     15 C     c       0.001987      0.001486     -0.001262      0.000000
     16 C     c      -0.001299      0.001253      0.001984      0.000000
     17 C     c       0.000042      0.002700      0.000993      0.000000
     18 C     c       0.000534      0.000981      0.003984      0.000000
     19 C     c      -0.001557     -0.000483     -0.003395      0.000000
     20 C     c      -0.003869      0.002083     -0.002361      0.000000
     21 C     c      -0.002577      0.002871     -0.001664      0.000000
     22 C     c       0.001550      0.000162     -0.002757      0.000000
     23 C     c      -0.002269      0.000465     -0.002859      0.000000
     24 C     c       0.006362     -0.001372      0.005737      0.000000
     25 C     c      -0.001634      0.001411     -0.000069      0.000000
     26 C     c       0.003430     -0.003568      0.002060      0.000000
     27 C     c       0.000790      0.000458     -0.000357      0.000000
     28 C     c       0.002005     -0.002062     -0.000575      0.000000
     29 C     c      -0.003640      0.003481      0.004055      0.000000
     30 C     c      -0.002924      0.001056      0.003198      0.000000
     31 C     c      -0.000407      0.000768      0.000597      0.000000
     32 C     c      -0.001526      0.003228      0.000087      0.000000
     33 C     c      -0.000317      0.000227      0.003627      0.000000
     34 C     c      -0.002340      0.004590      0.009330      0.000000
     35 C     c       0.001819      0.002908      0.000896      0.000000
     36 C     c       0.001074      0.001724      0.001977      0.000000
     37 C     c      -0.001252     -0.002872     -0.003995      0.000000
     38 C     c       0.000693      0.006116      0.002252      0.000000
     39 C     c      -0.000316     -0.001583     -0.001863      0.000000
     40 C     c       0.001260      0.000987      0.003013      0.000000
     41 C     c       0.001039      0.000661      0.000889      0.000000
     42 C     c      -0.000352      0.002986     -0.000923      0.000000
     43 C     c      -0.002198      0.002360      0.002856      0.000000
     44 C     c      -0.000660     -0.003795      0.000472      0.000000
     45 C     c       0.008000      0.006638      0.001297      0.000000
     46 C     c      -0.000645      0.000380     -0.000131      0.000000
     47 C     c      -0.002098      0.002467     -0.000772      0.000000
     48 C     c      -0.000988     -0.000954      0.001554      0.000000
     49 C     c      -0.004292      0.003727     -0.000503      0.000000
     50 C     c       0.002432     -0.000748     -0.003708      0.000000
     51 C     c       0.002113      0.001045      0.001116      0.000000
     52 C     c      -0.001096      0.001981     -0.001041      0.000000
     53 C     c      -0.000434      0.000469      0.000354      0.000000
     54 C     c       0.002297      0.005368     -0.001904      0.000000
     55 C     c       0.001040      0.002721      0.001084      0.000000
     56 C     c       0.001521     -0.001347      0.005682      0.000000
     57 C     c       0.002135      0.003980     -0.000561      0.000000
     58 C     c       0.001473      0.001408      0.002418      0.000000
     59 C     c       0.001009      0.003950      0.001621      0.000000
     60 C     c       0.002112      0.003176     -0.001009      0.000000
     61 C     c       0.001648     -0.000890     -0.001451      0.000000
     62 C     c      -0.000405      0.003774      0.000101      0.000000
     63 C     c       0.001924      0.001330     -0.000837      0.000000
     64 C     c      -0.003929     -0.000709     -0.000662      0.000000
--------------------------------------------------------------------------------
  Maximum abs         0.009009      0.006638      0.009330      0.000000
--------------------------------------------------------------------------------


  Time to end of optimisation =       0.4639 seconds


  Peak dynamic memory used =       2.01 MB 


  Timing analysis for GULP :

--------------------------------------------------------------------------------
  Task / Subroutine                                          Time (Seconds)
--------------------------------------------------------------------------------
  Calculation of Brenner energy and derivatives                   0.4385
--------------------------------------------------------------------------------
  Total CPU time                                                  0.4639
--------------------------------------------------------------------------------


  CIF file written as opti_0.9900.cif


  Job Finished at 16:20.07 12th August     2020                               

