********************************************************************************
*                       GENERAL UTILITY LATTICE PROGRAM                        *
*                                 Julian Gale                                  *
*                       Curtin Institute for Computation                       *
*                    School of Molecular and Life Sciences                     *
*                    Curtin University, Western Australia                      *
********************************************************************************
* Version = 5.2.0 * Last modified =  17th December 2019                        *
********************************************************************************
*  optimise     - perform optimisation run                                     *
*  conv         - constant volume calculation                                  *
*  isotropic    - only isotropic cell expansion to be allowed                  *
*  conjugate    - use conjugate gradients minimiser                            *
********************************************************************************
* ASE calculation                                                              *
********************************************************************************


  Job Started  at 16:48.17 11th August     2020                               

  Number of CPUs =     1


  Total number of configurations input =      1

********************************************************************************
*  Input for Configuration =   1                                               *
********************************************************************************

  Formula = C64                                                         

  Number of irreducible atoms/shells =      64


  Total number atoms/shells =      64

  Dimensionality = 3               :  Bulk   



  Cartesian lattice vectors (Angstroms) :

        7.583432    0.000000    0.000000
        0.000000    7.583432    0.000000
        0.000000    0.000000    7.583432

  Cell parameters (Angstroms/Degrees):

  a =       7.5834    alpha =  90.0000
  b =       7.5834    beta  =  90.0000
  c =       7.5834    gamma =  90.0000

  Initial cell volume =         436.111351 Angs**3

  Temperature of configuration =   0.00     K 

  Pressure of configuration =         0.000 GPa 

  Fractional coordinates of asymmetric unit :

--------------------------------------------------------------------------------
   No.  Atomic       x           y          z         Charge      Occupancy
        Label      (Frac)      (Frac)     (Frac)        (e)         (Frac)  
--------------------------------------------------------------------------------
      1 C     c    0.025100    0.587150    0.365320     0.00000    1.000000    
      2 C     c    0.261960 *  0.102350 *  0.107880 *   0.00000    1.000000    
      3 C     c    0.100080 *  0.438460 *  0.267700 *   0.00000    1.000000    
      4 C     c    0.878960 *  0.966820 *  0.452800 *   0.00000    1.000000    
      5 C     c    0.476970 *  0.917400 *  0.988740 *   0.00000    1.000000    
      6 C     c    0.786990 *  0.447150 *  0.220140 *   0.00000    1.000000    
      7 C     c    0.923040 *  0.637520 *  0.717050 *   0.00000    1.000000    
      8 C     c    0.810170 *  0.554560 *  0.590260 *   0.00000    1.000000    
      9 C     c    0.131790 *  0.380040 *  0.638710 *   0.00000    1.000000    
     10 C     c    0.404270 *  0.764550 *  0.117610 *   0.00000    1.000000    
     11 C     c    0.889700 *  0.256980 *  0.746610 *   0.00000    1.000000    
     12 C     c    0.569910 *  0.900620 *  0.557400 *   0.00000    1.000000    
     13 C     c    0.425650 *  0.240870 *  0.632440 *   0.00000    1.000000    
     14 C     c    0.200020 *  0.983730 *  0.798590 *   0.00000    1.000000    
     15 C     c    0.523060 *  0.608540 *  0.406760 *   0.00000    1.000000    
     16 C     c    0.987720 *  0.938200 *  0.121300 *   0.00000    1.000000    
     17 C     c    0.134680 *  0.821550 *  0.858210 *   0.00000    1.000000    
     18 C     c    0.347750 *  0.690110 *  0.662490 *   0.00000    1.000000    
     19 C     c    0.738190 *  0.384180 *  0.683430 *   0.00000    1.000000    
     20 C     c    0.046450 *  0.258110 *  0.266300 *   0.00000    1.000000    
     21 C     c    0.936080 *  0.173340 *  0.419850 *   0.00000    1.000000    
     22 C     c    0.843300 *  0.615880 *  0.414970 *   0.00000    1.000000    
     23 C     c    0.478470 *  0.818970 *  0.689890 *   0.00000    1.000000    
     24 C     c    0.794120 *  0.296780 *  0.327440 *   0.00000    1.000000    
     25 C     c    0.669440 *  0.161030 *  0.017330 *   0.00000    1.000000    
     26 C     c    0.520340 *  0.604650 *  0.088340 *   0.00000    1.000000    
     27 C     c    0.606080 *  0.280540 *  0.571440 *   0.00000    1.000000    
     28 C     c    0.633890 *  0.989520 *  0.119020 *   0.00000    1.000000    
     29 C     c    0.479160 *  0.916090 *  0.251290 *   0.00000    1.000000    
     30 C     c    0.339390 *  0.056680 *  0.923070 *   0.00000    1.000000    
     31 C     c    0.810280 *  0.113020 *  0.884120 *   0.00000    1.000000    
     32 C     c    0.867950 *  0.767490 *  0.838090 *   0.00000    1.000000    
     33 C     c    0.307470 *  0.395320 *  0.575810 *   0.00000    1.000000    
     34 C     c    0.226620 *  0.687030 *  0.123410 *   0.00000    1.000000    
     35 C     c    0.071610 *  0.510040 *  0.779400 *   0.00000    1.000000    
     36 C     c    0.326190 *  0.102150 *  0.509580 *   0.00000    1.000000    
     37 C     c    0.121970 *  0.741100 *  0.423810 *   0.00000    1.000000    
     38 C     c    0.542650 *  0.314790 *  0.957100 *   0.00000    1.000000    
     39 C     c    0.063420 *  0.131370 *  0.109250 *   0.00000    1.000000    
     40 C     c    0.769650 *  0.942180 *  0.796810 *   0.00000    1.000000    
     41 C     c    0.392750 *  0.558230 *  0.534200 *   0.00000    1.000000    
     42 C     c    0.068180 *  0.896530 *  0.498720 *   0.00000    1.000000    
     43 C     c    0.001700 *  0.428840 *  0.954850 *   0.00000    1.000000    
     44 C     c    0.238470 *  0.500650 *  0.156150 *   0.00000    1.000000    
     45 C     c    0.195650 *  0.672080 *  0.768160 *   0.00000    1.000000    
     46 C     c    0.892950 *  0.519810 *  0.081840 *   0.00000    1.000000    
     47 C     c    0.799980 *  0.863030 *  0.155410 *   0.00000    1.000000    
     48 C     c    0.985830 *  0.222010 *  0.949250 *   0.00000    1.000000    
     49 C     c    0.775600 *  0.805360 *  0.350140 *   0.00000    1.000000    
     50 C     c    0.821570 *  0.700470 *  0.025360 *   0.00000    1.000000    
     51 C     c    0.158980 *  0.041530 *  0.607950 *   0.00000    1.000000    
     52 C     c    0.476040 *  0.263670 *  0.276630 *   0.00000    1.000000    
     53 C     c    0.434680 *  0.399100 *  0.122780 *   0.00000    1.000000    
     54 C     c    0.365660 *  0.086630 *  0.294640 *   0.00000    1.000000    
     55 C     c    0.624160 *  0.266270 *  0.391710 *   0.00000    1.000000    
     56 C     c    0.422290 *  0.211340 *  0.832230 *   0.00000    1.000000    
     57 C     c    0.643820 *  0.455720 *  0.850330 *   0.00000    1.000000    
     58 C     c    0.737120 *  0.967710 *  0.602660 *   0.00000    1.000000    
     59 C     c    0.099210 *  0.802470 *  0.043610 *   0.00000    1.000000    
     60 C     c    0.617730 *  0.536110 *  0.254430 *   0.00000    1.000000    
     61 C     c    0.572990 *  0.809180 *  0.390000 *   0.00000    1.000000    
     62 C     c    0.027000 *  0.208410 *  0.602340 *   0.00000    1.000000    
     63 C     c    0.640770 *  0.641500 *  0.932270 *   0.00000    1.000000    
     64 C     c    0.588560 *  0.824650 *  0.852350 *   0.00000    1.000000    
--------------------------------------------------------------------------------


  Constraints : 

--------------------------------------------------------------------------------
  Constraint no.      Unconstrained     Constrained    Coefficient    Offset
                         Variable         Variable
--------------------------------------------------------------------------------
           1              Strain 1        Strain 2       1.00000      0.0000
           2              Strain 1        Strain 3       1.00000      0.0000
--------------------------------------------------------------------------------


********************************************************************************
*  General input information                                                   *
********************************************************************************

  Species output for all configurations : 

--------------------------------------------------------------------------------
  Species    Type    Atomic    Atomic    Charge       Radii (Angs)     Library
                     Number     Mass       (e)     Cova   Ionic  VDW   Symbol
--------------------------------------------------------------------------------
    C        Core        6      12.01   0.000000   0.770  0.000  1.530          
--------------------------------------------------------------------------------


  Lattice summation method               =    Ewald          (3-D)
                                         =    Parry          (2-D)
                                         =    Saunders et al (1-D)
  Accuracy factor for lattice sums       =   12.000


  Analytic derivatives to be used

  Time limit = Infinity

  Maximum range for interatomic potentials =    100000.000000 Angstroms

  Brenner et al 2002 potential to be used with explicit splines for P


********************************************************************************
*  Output for configuration   1                                                *
********************************************************************************


  Components of energy : 

--------------------------------------------------------------------------------
  Interatomic potentials     =           0.00000000 eV    
  Brenner potentials         =        -428.45082724 eV    
  Monopole - monopole (real) =           0.00000000 eV    
  Monopole - monopole (recip)=           0.00000000 eV    
  Monopole - monopole (total)=           0.00000000 eV    
--------------------------------------------------------------------------------
  Total lattice energy       =        -428.45082724 eV    
--------------------------------------------------------------------------------
  Total lattice energy       =          -41338.9554 kJ/(mole unit cells)
--------------------------------------------------------------------------------


  Number of variables =      189

  Maximum number of calculations  =          2000
  Maximum Hessian update interval =            10
  Maximum step size               =   1.000000000
  Maximum parameter tolerance     =   0.000010000
  Maximum function  tolerance     =   0.000010000
  Maximum gradient  tolerance     =   0.001000000
  Maximum gradient  component     =   0.010000000

  Symmetry not applied to optimisation

  Conjugate gradient optimiser to be used

  Lower half triangular hessian to be used

  Start of bulk optimisation :

  Cycle:      0 Energy:      -428.450827  Gnorm:      0.036700  CPU:    0.016
  Cycle:      1 Energy:      -428.452513  Gnorm:      0.013349  CPU:    0.039
  Cycle:      2 Energy:      -428.452814  Gnorm:      0.010511  CPU:    0.056
  Cycle:      3 Energy:      -428.453207  Gnorm:      0.010370  CPU:    0.074
  Cycle:      4 Energy:      -428.453407  Gnorm:      0.008406  CPU:    0.086
  Cycle:      5 Energy:      -428.453629  Gnorm:      0.007972  CPU:    0.106
  Cycle:      6 Energy:      -428.453756  Gnorm:      0.006506  CPU:    0.113
  Cycle:      7 Energy:      -428.453882  Gnorm:      0.005960  CPU:    0.138
  Cycle:      8 Energy:      -428.453959  Gnorm:      0.005008  CPU:    0.146
  Cycle:      9 Energy:      -428.454032  Gnorm:      0.004750  CPU:    0.172
  Cycle:     10 Energy:      -428.454056  Gnorm:      0.002224  CPU:    0.180
  Cycle:     11 Energy:      -428.454079  Gnorm:      0.002712  CPU:    0.200
  Cycle:     12 Energy:      -428.454099  Gnorm:      0.002372  CPU:    0.213
  Cycle:     13 Energy:      -428.454123  Gnorm:      0.002319  CPU:    0.230
  Cycle:     14 Energy:      -428.454134  Gnorm:      0.002007  CPU:    0.248
  Cycle:     15 Energy:      -428.454149  Gnorm:      0.001841  CPU:    0.266
  Cycle:     16 Energy:      -428.454156  Gnorm:      0.001441  CPU:    0.282
  Cycle:     17 Energy:      -428.454168  Gnorm:      0.001507  CPU:    0.296
  Cycle:     18 Energy:      -428.454177  Gnorm:      0.001734  CPU:    0.316
  Cycle:     19 Energy:      -428.454184  Gnorm:      0.001024  CPU:    0.324
  Cycle:     20 Energy:      -428.454185  Gnorm:      0.000715  CPU:    0.348
  Cycle:     21 Energy:      -428.454186  Gnorm:      0.000604  CPU:    0.356
  Cycle:     22 Energy:      -428.454188  Gnorm:      0.000756  CPU:    0.383
  Cycle:     23 Energy:      -428.454190  Gnorm:      0.000702  CPU:    0.392
  Cycle:     24 Energy:      -428.454192  Gnorm:      0.000735  CPU:    0.418
  Cycle:     25 Energy:      -428.454193  Gnorm:      0.000572  CPU:    0.426
  Cycle:     26 Energy:      -428.454194  Gnorm:      0.000425  CPU:    0.449
  Cycle:     27 Energy:      -428.454194  Gnorm:      0.000372  CPU:    0.459
  Cycle:     28 Energy:      -428.454195  Gnorm:      0.000332  CPU:    0.472
  Cycle:     29 Energy:      -428.454195  Gnorm:      0.000303  CPU:    0.491
  Cycle:     30 Energy:      -428.454195  Gnorm:      0.000286  CPU:    0.498
  Cycle:     31 Energy:      -428.454196  Gnorm:      0.000261  CPU:    0.523
  Cycle:     32 Energy:      -428.454196  Gnorm:      0.000238  CPU:    0.531
  Cycle:     33 Energy:      -428.454196  Gnorm:      0.000238  CPU:    0.556
  Cycle:     34 Energy:      -428.454198  Gnorm:      0.000427  CPU:    0.582
  Cycle:     35 Energy:      -428.454198  Gnorm:      0.000468  CPU:    0.597
  Cycle:     36 Energy:      -428.454199  Gnorm:      0.000780  CPU:    0.615
  Cycle:     37 Energy:      -428.454201  Gnorm:      0.000428  CPU:    0.631
  Cycle:     38 Energy:      -428.454201  Gnorm:      0.000304  CPU:    0.639
  Cycle:     39 Energy:      -428.454202  Gnorm:      0.000311  CPU:    0.664
  Cycle:     40 Energy:      -428.454202  Gnorm:      0.000261  CPU:    0.689
  Cycle:     41 Energy:      -428.454202  Gnorm:      0.000263  CPU:    0.703
  Cycle:     42 Energy:      -428.454202  Gnorm:      0.000199  CPU:    0.733


  **** Optimisation achieved ****


  Final energy =    -428.45420192 eV
  Final Gnorm  =       0.00018164

  Components of energy : 

--------------------------------------------------------------------------------
  Interatomic potentials     =           0.00000000 eV    
  Brenner potentials         =        -428.45420192 eV    
  Monopole - monopole (real) =           0.00000000 eV    
  Monopole - monopole (recip)=           0.00000000 eV    
  Monopole - monopole (total)=           0.00000000 eV    
--------------------------------------------------------------------------------
  Total lattice energy       =        -428.45420192 eV    
--------------------------------------------------------------------------------
  Total lattice energy       =          -41339.2810 kJ/(mole unit cells)
--------------------------------------------------------------------------------

  Final fractional coordinates of atoms :

--------------------------------------------------------------------------------
   No.  Atomic        x           y          z          Radius
        Label       (Frac)      (Frac)     (Frac)       (Angs) 
--------------------------------------------------------------------------------
     1  C     c     0.025100    0.587150    0.365320    0.000000
     2  C     c     0.261779    0.102383    0.107731    0.000000
     3  C     c     0.100025    0.438678    0.267559    0.000000
     4  C     c     0.879024    0.966962    0.452782    0.000000
     5  C     c     0.477073    0.917241    0.988853    0.000000
     6  C     c     0.786819    0.447418    0.220384    0.000000
     7  C     c     0.922635    0.637158    0.717177    0.000000
     8  C     c     0.810256    0.554203    0.590201    0.000000
     9  C     c     0.131933    0.380153    0.638972    0.000000
    10  C     c     0.404433    0.764483    0.117663    0.000000
    11  C     c     0.889554    0.256678    0.746540    0.000000
    12  C     c     0.570304    0.899991    0.557387    0.000000
    13  C     c     0.425628    0.240942    0.632414    0.000000
    14  C     c     0.200373    0.983585    0.798443    0.000000
    15  C     c     0.522856    0.608493    0.406730    0.000000
    16  C     c     0.987846    0.938181    0.121018    0.000000
    17  C     c     0.135220    0.821514    0.858214    0.000000
    18  C     c     0.348028    0.689947    0.662644    0.000000
    19  C     c     0.738116    0.384003    0.683433    0.000000
    20  C     c     0.046039    0.258467    0.266085    0.000000
    21  C     c     0.936101    0.173608    0.419901    0.000000
    22  C     c     0.843394    0.615741    0.415056    0.000000
    23  C     c     0.478837    0.818553    0.689815    0.000000
    24  C     c     0.794154    0.297199    0.327716    0.000000
    25  C     c     0.669359    0.160607    0.016956    0.000000
    26  C     c     0.520283    0.604596    0.088477    0.000000
    27  C     c     0.605969    0.280642    0.571417    0.000000
    28  C     c     0.634115    0.989255    0.118850    0.000000
    29  C     c     0.479456    0.916096    0.251103    0.000000
    30  C     c     0.339511    0.056587    0.923097    0.000000
    31  C     c     0.810183    0.112731    0.883859    0.000000
    32  C     c     0.867282    0.766978    0.838030    0.000000
    33  C     c     0.307522    0.395419    0.576142    0.000000
    34  C     c     0.226816    0.687172    0.123436    0.000000
    35  C     c     0.071581    0.510329    0.779421    0.000000
    36  C     c     0.326158    0.102407    0.509412    0.000000
    37  C     c     0.121517    0.741259    0.423832    0.000000
    38  C     c     0.542742    0.314592    0.957023    0.000000
    39  C     c     0.063235    0.131611    0.109109    0.000000
    40  C     c     0.769631    0.941905    0.796701    0.000000
    41  C     c     0.392777    0.558186    0.534337    0.000000
    42  C     c     0.068163    0.896743    0.498581    0.000000
    43  C     c     0.001217    0.428939    0.954801    0.000000
    44  C     c     0.238544    0.500892    0.156322    0.000000
    45  C     c     0.196036    0.671991    0.768344    0.000000
    46  C     c     0.892496    0.519730    0.081805    0.000000
    47  C     c     0.800242    0.862800    0.155200    0.000000
    48  C     c     0.985405    0.222176    0.949092    0.000000
    49  C     c     0.775724    0.805309    0.350018    0.000000
    50  C     c     0.821231    0.700288    0.025319    0.000000
    51  C     c     0.159050    0.041612    0.607837    0.000000
    52  C     c     0.476396    0.263678    0.276590    0.000000
    53  C     c     0.435033    0.399123    0.122764    0.000000
    54  C     c     0.365956    0.086707    0.294180    0.000000
    55  C     c     0.624232    0.266461    0.391825    0.000000
    56  C     c     0.422425    0.211136    0.832195    0.000000
    57  C     c     0.643846    0.455529    0.850337    0.000000
    58  C     c     0.737287    0.967166    0.602615    0.000000
    59  C     c     0.099636    0.802663    0.043522    0.000000
    60  C     c     0.617547    0.536154    0.254486    0.000000
    61  C     c     0.573139    0.808999    0.389839    0.000000
    62  C     c     0.027053    0.208685    0.602451    0.000000
    63  C     c     0.640527    0.641190    0.932390    0.000000
    64  C     c     0.588489    0.824395    0.852431    0.000000
--------------------------------------------------------------------------------

  Final internal derivatives :

--------------------------------------------------------------------------------
   No.  Atomic          a             b             c           Radius
        Label          (eV)          (eV)          (eV)        (eV/Angs)
--------------------------------------------------------------------------------
      1 C     c       0.000000      0.000000      0.000000      0.000000
      2 C     c      -0.001747      0.001927      0.001828      0.000000
      3 C     c       0.001461      0.000400      0.001645      0.000000
      4 C     c      -0.000105      0.002729      0.001413      0.000000
      5 C     c      -0.000839      0.003289      0.005825      0.000000
      6 C     c       0.000170      0.007708      0.007084      0.000000
      7 C     c       0.005065      0.005741      0.001186      0.000000
      8 C     c       0.002641      0.005421      0.003755      0.000000
      9 C     c      -0.000523      0.000088      0.003721      0.000000
     10 C     c      -0.003026      0.002161      0.000209      0.000000
     11 C     c       0.000324      0.003147      0.002486      0.000000
     12 C     c      -0.000308      0.002704      0.000701      0.000000
     13 C     c      -0.000052      0.001609      0.001535      0.000000
     14 C     c      -0.002232      0.003986      0.002186      0.000000
     15 C     c       0.000540      0.004295      0.001058      0.000000
     16 C     c      -0.002086      0.001275      0.000356      0.000000
     17 C     c      -0.002564      0.003905      0.001245      0.000000
     18 C     c      -0.003777      0.003946     -0.000044      0.000000
     19 C     c      -0.000197      0.005764      0.002095      0.000000
     20 C     c      -0.000855      0.000956      0.000829      0.000000
     21 C     c      -0.001370      0.001688      0.002234      0.000000
     22 C     c      -0.001024     -0.002730     -0.003932      0.000000
     23 C     c      -0.001626      0.002330     -0.000442      0.000000
     24 C     c      -0.000365      0.002846      0.001357      0.000000
     25 C     c      -0.001092      0.002529      0.001327      0.000000
     26 C     c      -0.001405      0.003161      0.002421      0.000000
     27 C     c      -0.000162      0.004100      0.002217      0.000000
     28 C     c      -0.000866      0.002934      0.003124      0.000000
     29 C     c      -0.001240      0.002808     -0.001388      0.000000
     30 C     c      -0.001025      0.003455      0.001833      0.000000
     31 C     c      -0.001500      0.003277      0.001323      0.000000
     32 C     c       0.007906      0.006937      0.001887      0.000000
     33 C     c      -0.001331      0.001430      0.001861      0.000000
     34 C     c      -0.003412      0.001397     -0.001175      0.000000
     35 C     c       0.000418     -0.000051      0.002183      0.000000
     36 C     c      -0.000718      0.003020      0.003308      0.000000
     37 C     c      -0.000200      0.000352      0.002201      0.000000
     38 C     c       0.000519      0.001900      0.002845      0.000000
     39 C     c      -0.001659      0.000346      0.001387      0.000000
     40 C     c      -0.000704      0.002317      0.001142      0.000000
     41 C     c      -0.001761      0.002695      0.000785      0.000000
     42 C     c       0.000556      0.002525     -0.001470      0.000000
     43 C     c      -0.000132      0.000140      0.001124      0.000000
     44 C     c      -0.001829      0.001662     -0.001529      0.000000
     45 C     c      -0.004909      0.004984     -0.001086      0.000000
     46 C     c      -0.000801      0.001035      0.000418      0.000000
     47 C     c      -0.002357      0.002086      0.001370      0.000000
     48 C     c       0.000995     -0.000344      0.001486      0.000000
     49 C     c       0.000403      0.001969      0.002180      0.000000
     50 C     c      -0.000575      0.001956     -0.001904      0.000000
     51 C     c      -0.000986      0.002331      0.000953      0.000000
     52 C     c       0.000129      0.005368      0.003355      0.000000
     53 C     c      -0.000492      0.002183      0.000212      0.000000
     54 C     c       0.000110      0.003658      0.002367      0.000000
     55 C     c       0.000205      0.005435      0.002615      0.000000
     56 C     c       0.000204      0.003230      0.002031      0.000000
     57 C     c       0.000096      0.002615      0.003452      0.000000
     58 C     c      -0.000177      0.001463      0.001002      0.000000
     59 C     c      -0.003006      0.001872      0.000170      0.000000
     60 C     c      -0.000875      0.002023      0.001840      0.000000
     61 C     c       0.000128      0.002813      0.001439      0.000000
     62 C     c      -0.001216      0.001924      0.001938      0.000000
     63 C     c      -0.002353      0.002042      0.002770      0.000000
     64 C     c      -0.003586      0.002251      0.000632      0.000000
--------------------------------------------------------------------------------
  Maximum abs         0.007906      0.007708      0.007084      0.000000
--------------------------------------------------------------------------------


  Time to end of optimisation =       0.7464 seconds


  Peak dynamic memory used =       1.98 MB 


  Timing analysis for GULP :

--------------------------------------------------------------------------------
  Task / Subroutine                                          Time (Seconds)
--------------------------------------------------------------------------------
  Calculation of Brenner energy and derivatives                   0.7281
--------------------------------------------------------------------------------
  Total CPU time                                                  0.7465
--------------------------------------------------------------------------------


  CIF file written as opti_0.9900.cif


  Job Finished at 16:48.17 11th August     2020                               

