********************************************************************************
*                       GENERAL UTILITY LATTICE PROGRAM                        *
*                                 Julian Gale                                  *
*                       Curtin Institute for Computation                       *
*                    School of Molecular and Life Sciences                     *
*                    Curtin University, Western Australia                      *
********************************************************************************
* Version = 5.2.0 * Last modified =  17th December 2019                        *
********************************************************************************
*  single       - perform a single point run                                   *
*  property     - calculate properties for final geometry                      *
*  phonon       - calculate phonons for final geometry                         *
********************************************************************************
* ASE calculation                                                              *
********************************************************************************


  Job Started  at 20:12.43 29th July       2020                               

  Number of CPUs =     1


  Total number of configurations input =      1

********************************************************************************
*  Input for Configuration =   1                                               *
********************************************************************************

  Formula = C64                                                         

  Number of irreducible atoms/shells =      64


  Total number atoms/shells =      64

  Dimensionality = 3               :  Bulk   



  Cartesian lattice vectors (Angstroms) :

        7.726600    0.000000    0.000000
        0.000000    7.726600    0.000000
        0.000000    0.000000    7.726600

  Cell parameters (Angstroms/Degrees):

  a =       7.7266    alpha =  90.0000
  b =       7.7266    beta  =  90.0000
  c =       7.7266    gamma =  90.0000

  Initial cell volume =         461.280705 Angs**3

  Shrinking factors =      8     8     8

  Temperature of configuration =   10.0     K 

  Pressure of configuration =         0.000 GPa 

  Fractional coordinates of asymmetric unit :

--------------------------------------------------------------------------------
   No.  Atomic       x           y          z         Charge      Occupancy
        Label      (Frac)      (Frac)     (Frac)        (e)         (Frac)  
--------------------------------------------------------------------------------
      1 C     c    0.476040    0.519880    0.065020     0.00000    1.000000    
      2 C     c    0.407970    0.736290    0.310370     0.00000    1.000000    
      3 C     c    0.290370    0.263230    0.910350     0.00000    1.000000    
      4 C     c    0.103820    0.007760    0.619330     0.00000    1.000000    
      5 C     c    0.955710    0.855230    0.885270     0.00000    1.000000    
      6 C     c    0.796400    0.476270    0.584560     0.00000    1.000000    
      7 C     c    0.617160    0.411100    0.680150     0.00000    1.000000    
      8 C     c    0.786630    0.713400    0.343410     0.00000    1.000000    
      9 C     c    0.885490    0.241890    0.329150     0.00000    1.000000    
     10 C     c    0.689580    0.157900    0.144900     0.00000    1.000000    
     11 C     c    0.868850    0.033510    0.365380     0.00000    1.000000    
     12 C     c    0.950300    0.931320    0.525440     0.00000    1.000000    
     13 C     c    0.517540    0.058100    0.153740     0.00000    1.000000    
     14 C     c    0.548540    0.977630    0.499180     0.00000    1.000000    
     15 C     c    0.468580    0.329750    0.001320     0.00000    1.000000    
     16 C     c    0.950350    0.349250    0.491500     0.00000    1.000000    
     17 C     c    0.159010    0.419670    0.833760     0.00000    1.000000    
     18 C     c    0.829360    0.735370    0.816010     0.00000    1.000000    
     19 C     c    0.909650    0.945610    0.040850     0.00000    1.000000    
     20 C     c    0.143830    0.916030    0.801100     0.00000    1.000000    
     21 C     c    0.869350    0.648720    0.658680     0.00000    1.000000    
     22 C     c    0.889840    0.124490    0.730790     0.00000    1.000000    
     23 C     c    0.495890    0.594670    0.414180     0.00000    1.000000    
     24 C     c    0.650970    0.704800    0.885570     0.00000    1.000000    
     25 C     c    0.640460    0.585610    0.027540     0.00000    1.000000    
     26 C     c    0.787540    0.978730    0.717980     0.00000    1.000000    
     27 C     c    0.476080    0.451450    0.577650     0.00000    1.000000    
     28 C     c    0.359520    0.636680    0.142670     0.00000    1.000000    
     29 C     c    0.588870    0.954300    0.694760     0.00000    1.000000    
     30 C     c    0.716480    0.338120    0.234420     0.00000    1.000000    
     31 C     c    0.011380    0.199460    0.157000     0.00000    1.000000    
     32 C     c    0.971280    0.393610    0.899540     0.00000    1.000000    
     33 C     c    0.502940    0.789280    0.791080     0.00000    1.000000    
     34 C     c    0.852210    0.134210    0.039100     0.00000    1.000000    
     35 C     c    0.353800    0.177500    0.714470     0.00000    1.000000    
     36 C     c    0.114420    0.477690    0.452340     0.00000    1.000000    
     37 C     c    0.186480    0.171260    0.082470     0.00000    1.000000    
     38 C     c    0.282000    0.397100    0.519080     0.00000    1.000000    
     39 C     c    0.099750    0.672460    0.423900     0.00000    1.000000    
     40 C     c    0.932500    0.497310    0.040870     0.00000    1.000000    
     41 C     c    0.835760    0.242750    0.876300     0.00000    1.000000    
     42 C     c    0.378620    0.216230    0.169530     0.00000    1.000000    
     43 C     c    0.392560    0.114430    0.512070     0.00000    1.000000    
     44 C     c    0.976490    0.709270    0.270750     0.00000    1.000000    
     45 C     c    0.397260    0.277500    0.373060     0.00000    1.000000    
     46 C     c    0.561980    0.397870    0.341340     0.00000    1.000000    
     47 C     c    0.305250    0.764860    0.793230     0.00000    1.000000    
     48 C     c    0.920110    0.894540    0.215460     0.00000    1.000000    
     49 C     c    0.766190    0.483400    0.107690     0.00000    1.000000    
     50 C     c    0.252540    0.802960    0.417720     0.00000    1.000000    
     51 C     c    0.702650    0.553140    0.416060     0.00000    1.000000    
     52 C     c    0.954850    0.748580    0.536630     0.00000    1.000000    
     53 C     c    0.228540    0.605570    0.870070     0.00000    1.000000    
     54 C     c    0.039620    0.614910    0.118260     0.00000    1.000000    
     55 C     c    0.625050    0.285060    0.850400     0.00000    1.000000    
     56 C     c    0.437030    0.017030    0.972570     0.00000    1.000000    
     57 C     c    0.518960    0.911200    0.290920     0.00000    1.000000    
     58 C     c    0.203920    0.638940    0.052860     0.00000    1.000000    
     59 C     c    0.036340    0.208720    0.618040     0.00000    1.000000    
     60 C     c    0.255530    0.959620    0.496670     0.00000    1.000000    
     61 C     c    0.711470    0.893750    0.375900     0.00000    1.000000    
     62 C     c    0.241320    0.013450    0.956460     0.00000    1.000000    
     63 C     c    0.514830    0.101790    0.812070     0.00000    1.000000    
     64 C     c    0.198860    0.304060    0.673160     0.00000    1.000000    
--------------------------------------------------------------------------------


  Brillouin zone sampling points :

--------------------------------------------------------------------------------
  Point number          x          y          z            Weight
--------------------------------------------------------------------------------
        1           0.062500   0.062500   0.062500     0.00390625
        2           0.062500   0.062500   0.187500     0.00390625
        3           0.062500   0.062500   0.312500     0.00390625
        4           0.062500   0.062500   0.437500     0.00390625
        5           0.062500   0.062500   0.562500     0.00390625
        6           0.062500   0.062500   0.687500     0.00390625
        7           0.062500   0.062500   0.812500     0.00390625
        8           0.062500   0.062500   0.937500     0.00390625
        9           0.062500   0.187500   0.062500     0.00390625
       10           0.062500   0.187500   0.187500     0.00390625
       11           0.062500   0.187500   0.312500     0.00390625
       12           0.062500   0.187500   0.437500     0.00390625
       13           0.062500   0.187500   0.562500     0.00390625
       14           0.062500   0.187500   0.687500     0.00390625
       15           0.062500   0.187500   0.812500     0.00390625
       16           0.062500   0.187500   0.937500     0.00390625
       17           0.062500   0.312500   0.062500     0.00390625
       18           0.062500   0.312500   0.187500     0.00390625
       19           0.062500   0.312500   0.312500     0.00390625
       20           0.062500   0.312500   0.437500     0.00390625
       21           0.062500   0.312500   0.562500     0.00390625
       22           0.062500   0.312500   0.687500     0.00390625
       23           0.062500   0.312500   0.812500     0.00390625
       24           0.062500   0.312500   0.937500     0.00390625
       25           0.062500   0.437500   0.062500     0.00390625
       26           0.062500   0.437500   0.187500     0.00390625
       27           0.062500   0.437500   0.312500     0.00390625
       28           0.062500   0.437500   0.437500     0.00390625
       29           0.062500   0.437500   0.562500     0.00390625
       30           0.062500   0.437500   0.687500     0.00390625
       31           0.062500   0.437500   0.812500     0.00390625
       32           0.062500   0.437500   0.937500     0.00390625
       33           0.062500   0.562500   0.062500     0.00390625
       34           0.062500   0.562500   0.187500     0.00390625
       35           0.062500   0.562500   0.312500     0.00390625
       36           0.062500   0.562500   0.437500     0.00390625
       37           0.062500   0.562500   0.562500     0.00390625
       38           0.062500   0.562500   0.687500     0.00390625
       39           0.062500   0.562500   0.812500     0.00390625
       40           0.062500   0.562500   0.937500     0.00390625
       41           0.062500   0.687500   0.062500     0.00390625
       42           0.062500   0.687500   0.187500     0.00390625
       43           0.062500   0.687500   0.312500     0.00390625
       44           0.062500   0.687500   0.437500     0.00390625
       45           0.062500   0.687500   0.562500     0.00390625
       46           0.062500   0.687500   0.687500     0.00390625
       47           0.062500   0.687500   0.812500     0.00390625
       48           0.062500   0.687500   0.937500     0.00390625
       49           0.062500   0.812500   0.062500     0.00390625
       50           0.062500   0.812500   0.187500     0.00390625
       51           0.062500   0.812500   0.312500     0.00390625
       52           0.062500   0.812500   0.437500     0.00390625
       53           0.062500   0.812500   0.562500     0.00390625
       54           0.062500   0.812500   0.687500     0.00390625
       55           0.062500   0.812500   0.812500     0.00390625
       56           0.062500   0.812500   0.937500     0.00390625
       57           0.062500   0.937500   0.062500     0.00390625
       58           0.062500   0.937500   0.187500     0.00390625
       59           0.062500   0.937500   0.312500     0.00390625
       60           0.062500   0.937500   0.437500     0.00390625
       61           0.062500   0.937500   0.562500     0.00390625
       62           0.062500   0.937500   0.687500     0.00390625
       63           0.062500   0.937500   0.812500     0.00390625
       64           0.062500   0.937500   0.937500     0.00390625
       65           0.187500   0.062500   0.062500     0.00390625
       66           0.187500   0.062500   0.187500     0.00390625
       67           0.187500   0.062500   0.312500     0.00390625
       68           0.187500   0.062500   0.437500     0.00390625
       69           0.187500   0.062500   0.562500     0.00390625
       70           0.187500   0.062500   0.687500     0.00390625
       71           0.187500   0.062500   0.812500     0.00390625
       72           0.187500   0.062500   0.937500     0.00390625
       73           0.187500   0.187500   0.062500     0.00390625
       74           0.187500   0.187500   0.187500     0.00390625
       75           0.187500   0.187500   0.312500     0.00390625
       76           0.187500   0.187500   0.437500     0.00390625
       77           0.187500   0.187500   0.562500     0.00390625
       78           0.187500   0.187500   0.687500     0.00390625
       79           0.187500   0.187500   0.812500     0.00390625
       80           0.187500   0.187500   0.937500     0.00390625
       81           0.187500   0.312500   0.062500     0.00390625
       82           0.187500   0.312500   0.187500     0.00390625
       83           0.187500   0.312500   0.312500     0.00390625
       84           0.187500   0.312500   0.437500     0.00390625
       85           0.187500   0.312500   0.562500     0.00390625
       86           0.187500   0.312500   0.687500     0.00390625
       87           0.187500   0.312500   0.812500     0.00390625
       88           0.187500   0.312500   0.937500     0.00390625
       89           0.187500   0.437500   0.062500     0.00390625
       90           0.187500   0.437500   0.187500     0.00390625
       91           0.187500   0.437500   0.312500     0.00390625
       92           0.187500   0.437500   0.437500     0.00390625
       93           0.187500   0.437500   0.562500     0.00390625
       94           0.187500   0.437500   0.687500     0.00390625
       95           0.187500   0.437500   0.812500     0.00390625
       96           0.187500   0.437500   0.937500     0.00390625
       97           0.187500   0.562500   0.062500     0.00390625
       98           0.187500   0.562500   0.187500     0.00390625
       99           0.187500   0.562500   0.312500     0.00390625
      100           0.187500   0.562500   0.437500     0.00390625
      101           0.187500   0.562500   0.562500     0.00390625
      102           0.187500   0.562500   0.687500     0.00390625
      103           0.187500   0.562500   0.812500     0.00390625
      104           0.187500   0.562500   0.937500     0.00390625
      105           0.187500   0.687500   0.062500     0.00390625
      106           0.187500   0.687500   0.187500     0.00390625
      107           0.187500   0.687500   0.312500     0.00390625
      108           0.187500   0.687500   0.437500     0.00390625
      109           0.187500   0.687500   0.562500     0.00390625
      110           0.187500   0.687500   0.687500     0.00390625
      111           0.187500   0.687500   0.812500     0.00390625
      112           0.187500   0.687500   0.937500     0.00390625
      113           0.187500   0.812500   0.062500     0.00390625
      114           0.187500   0.812500   0.187500     0.00390625
      115           0.187500   0.812500   0.312500     0.00390625
      116           0.187500   0.812500   0.437500     0.00390625
      117           0.187500   0.812500   0.562500     0.00390625
      118           0.187500   0.812500   0.687500     0.00390625
      119           0.187500   0.812500   0.812500     0.00390625
      120           0.187500   0.812500   0.937500     0.00390625
      121           0.187500   0.937500   0.062500     0.00390625
      122           0.187500   0.937500   0.187500     0.00390625
      123           0.187500   0.937500   0.312500     0.00390625
      124           0.187500   0.937500   0.437500     0.00390625
      125           0.187500   0.937500   0.562500     0.00390625
      126           0.187500   0.937500   0.687500     0.00390625
      127           0.187500   0.937500   0.812500     0.00390625
      128           0.187500   0.937500   0.937500     0.00390625
      129           0.312500   0.062500   0.062500     0.00390625
      130           0.312500   0.062500   0.187500     0.00390625
      131           0.312500   0.062500   0.312500     0.00390625
      132           0.312500   0.062500   0.437500     0.00390625
      133           0.312500   0.062500   0.562500     0.00390625
      134           0.312500   0.062500   0.687500     0.00390625
      135           0.312500   0.062500   0.812500     0.00390625
      136           0.312500   0.062500   0.937500     0.00390625
      137           0.312500   0.187500   0.062500     0.00390625
      138           0.312500   0.187500   0.187500     0.00390625
      139           0.312500   0.187500   0.312500     0.00390625
      140           0.312500   0.187500   0.437500     0.00390625
      141           0.312500   0.187500   0.562500     0.00390625
      142           0.312500   0.187500   0.687500     0.00390625
      143           0.312500   0.187500   0.812500     0.00390625
      144           0.312500   0.187500   0.937500     0.00390625
      145           0.312500   0.312500   0.062500     0.00390625
      146           0.312500   0.312500   0.187500     0.00390625
      147           0.312500   0.312500   0.312500     0.00390625
      148           0.312500   0.312500   0.437500     0.00390625
      149           0.312500   0.312500   0.562500     0.00390625
      150           0.312500   0.312500   0.687500     0.00390625
      151           0.312500   0.312500   0.812500     0.00390625
      152           0.312500   0.312500   0.937500     0.00390625
      153           0.312500   0.437500   0.062500     0.00390625
      154           0.312500   0.437500   0.187500     0.00390625
      155           0.312500   0.437500   0.312500     0.00390625
      156           0.312500   0.437500   0.437500     0.00390625
      157           0.312500   0.437500   0.562500     0.00390625
      158           0.312500   0.437500   0.687500     0.00390625
      159           0.312500   0.437500   0.812500     0.00390625
      160           0.312500   0.437500   0.937500     0.00390625
      161           0.312500   0.562500   0.062500     0.00390625
      162           0.312500   0.562500   0.187500     0.00390625
      163           0.312500   0.562500   0.312500     0.00390625
      164           0.312500   0.562500   0.437500     0.00390625
      165           0.312500   0.562500   0.562500     0.00390625
      166           0.312500   0.562500   0.687500     0.00390625
      167           0.312500   0.562500   0.812500     0.00390625
      168           0.312500   0.562500   0.937500     0.00390625
      169           0.312500   0.687500   0.062500     0.00390625
      170           0.312500   0.687500   0.187500     0.00390625
      171           0.312500   0.687500   0.312500     0.00390625
      172           0.312500   0.687500   0.437500     0.00390625
      173           0.312500   0.687500   0.562500     0.00390625
      174           0.312500   0.687500   0.687500     0.00390625
      175           0.312500   0.687500   0.812500     0.00390625
      176           0.312500   0.687500   0.937500     0.00390625
      177           0.312500   0.812500   0.062500     0.00390625
      178           0.312500   0.812500   0.187500     0.00390625
      179           0.312500   0.812500   0.312500     0.00390625
      180           0.312500   0.812500   0.437500     0.00390625
      181           0.312500   0.812500   0.562500     0.00390625
      182           0.312500   0.812500   0.687500     0.00390625
      183           0.312500   0.812500   0.812500     0.00390625
      184           0.312500   0.812500   0.937500     0.00390625
      185           0.312500   0.937500   0.062500     0.00390625
      186           0.312500   0.937500   0.187500     0.00390625
      187           0.312500   0.937500   0.312500     0.00390625
      188           0.312500   0.937500   0.437500     0.00390625
      189           0.312500   0.937500   0.562500     0.00390625
      190           0.312500   0.937500   0.687500     0.00390625
      191           0.312500   0.937500   0.812500     0.00390625
      192           0.312500   0.937500   0.937500     0.00390625
      193           0.437500   0.062500   0.062500     0.00390625
      194           0.437500   0.062500   0.187500     0.00390625
      195           0.437500   0.062500   0.312500     0.00390625
      196           0.437500   0.062500   0.437500     0.00390625
      197           0.437500   0.062500   0.562500     0.00390625
      198           0.437500   0.062500   0.687500     0.00390625
      199           0.437500   0.062500   0.812500     0.00390625
      200           0.437500   0.062500   0.937500     0.00390625
      201           0.437500   0.187500   0.062500     0.00390625
      202           0.437500   0.187500   0.187500     0.00390625
      203           0.437500   0.187500   0.312500     0.00390625
      204           0.437500   0.187500   0.437500     0.00390625
      205           0.437500   0.187500   0.562500     0.00390625
      206           0.437500   0.187500   0.687500     0.00390625
      207           0.437500   0.187500   0.812500     0.00390625
      208           0.437500   0.187500   0.937500     0.00390625
      209           0.437500   0.312500   0.062500     0.00390625
      210           0.437500   0.312500   0.187500     0.00390625
      211           0.437500   0.312500   0.312500     0.00390625
      212           0.437500   0.312500   0.437500     0.00390625
      213           0.437500   0.312500   0.562500     0.00390625
      214           0.437500   0.312500   0.687500     0.00390625
      215           0.437500   0.312500   0.812500     0.00390625
      216           0.437500   0.312500   0.937500     0.00390625
      217           0.437500   0.437500   0.062500     0.00390625
      218           0.437500   0.437500   0.187500     0.00390625
      219           0.437500   0.437500   0.312500     0.00390625
      220           0.437500   0.437500   0.437500     0.00390625
      221           0.437500   0.437500   0.562500     0.00390625
      222           0.437500   0.437500   0.687500     0.00390625
      223           0.437500   0.437500   0.812500     0.00390625
      224           0.437500   0.437500   0.937500     0.00390625
      225           0.437500   0.562500   0.062500     0.00390625
      226           0.437500   0.562500   0.187500     0.00390625
      227           0.437500   0.562500   0.312500     0.00390625
      228           0.437500   0.562500   0.437500     0.00390625
      229           0.437500   0.562500   0.562500     0.00390625
      230           0.437500   0.562500   0.687500     0.00390625
      231           0.437500   0.562500   0.812500     0.00390625
      232           0.437500   0.562500   0.937500     0.00390625
      233           0.437500   0.687500   0.062500     0.00390625
      234           0.437500   0.687500   0.187500     0.00390625
      235           0.437500   0.687500   0.312500     0.00390625
      236           0.437500   0.687500   0.437500     0.00390625
      237           0.437500   0.687500   0.562500     0.00390625
      238           0.437500   0.687500   0.687500     0.00390625
      239           0.437500   0.687500   0.812500     0.00390625
      240           0.437500   0.687500   0.937500     0.00390625
      241           0.437500   0.812500   0.062500     0.00390625
      242           0.437500   0.812500   0.187500     0.00390625
      243           0.437500   0.812500   0.312500     0.00390625
      244           0.437500   0.812500   0.437500     0.00390625
      245           0.437500   0.812500   0.562500     0.00390625
      246           0.437500   0.812500   0.687500     0.00390625
      247           0.437500   0.812500   0.812500     0.00390625
      248           0.437500   0.812500   0.937500     0.00390625
      249           0.437500   0.937500   0.062500     0.00390625
      250           0.437500   0.937500   0.187500     0.00390625
      251           0.437500   0.937500   0.312500     0.00390625
      252           0.437500   0.937500   0.437500     0.00390625
      253           0.437500   0.937500   0.562500     0.00390625
      254           0.437500   0.937500   0.687500     0.00390625
      255           0.437500   0.937500   0.812500     0.00390625
      256           0.437500   0.937500   0.937500     0.00390625
--------------------------------------------------------------------------------


********************************************************************************
*  General input information                                                   *
********************************************************************************

  Species output for all configurations : 

--------------------------------------------------------------------------------
  Species    Type    Atomic    Atomic    Charge       Radii (Angs)     Library
                     Number     Mass       (e)     Cova   Ionic  VDW   Symbol
--------------------------------------------------------------------------------
    C        Core        6      12.01   0.000000   0.770  0.000  1.530          
--------------------------------------------------------------------------------


  Lattice summation method               =    Ewald          (3-D)
                                         =    Parry          (2-D)
                                         =    Saunders et al (1-D)
  Accuracy factor for lattice sums       =   12.000


  Analytic derivatives to be used

  Time limit = Infinity

  Maximum range for interatomic potentials =    100000.000000 Angstroms

  Brenner et al 2002 potential to be used with explicit splines for P


********************************************************************************
*  Output for configuration   1                                                *
********************************************************************************


  Components of energy : 

--------------------------------------------------------------------------------
  Interatomic potentials     =           0.00000000 eV    
  Brenner potentials         =        -421.45924834 eV    
  Monopole - monopole (real) =           0.00000000 eV    
  Monopole - monopole (recip)=           0.00000000 eV    
  Monopole - monopole (total)=           0.00000000 eV    
--------------------------------------------------------------------------------
  Total lattice energy       =        -421.45924834 eV    
--------------------------------------------------------------------------------
  Total lattice energy       =          -40664.3749 kJ/(mole unit cells)
--------------------------------------------------------------------------------


  Elastic Constant Matrix: (Units=GPa)

-------------------------------------------------------------------------------
  Indices      1         2         3         4         5         6    
-------------------------------------------------------------------------------
       1    496.0275  177.1049  158.7117   21.6709  -33.8351   23.4455
       2    177.1049  348.2387  147.0829   -1.7466    4.0441   21.0500
       3    158.7117  147.0829  393.3174    7.5555  -49.8606  -13.2221
       4     21.6709   -1.7466    7.5555  143.3739  -26.7384   -7.8344
       5    -33.8351    4.0441  -49.8606  -26.7384  123.7094   26.8948
       6     23.4455   21.0500  -13.2221   -7.8344   26.8948  131.6295
-------------------------------------------------------------------------------


  Elastic Compliance Matrix: (Units=1/GPa)

-------------------------------------------------------------------------------
  Indices      1         2         3         4         5         6    
-------------------------------------------------------------------------------
       1    0.002673 -0.001077 -0.000616 -0.000307  0.000560 -0.000498
       2   -0.001077  0.003939 -0.001152  0.000105 -0.000781 -0.000388
       3   -0.000616 -0.001152  0.003382  0.000142  0.001176  0.000402
       4   -0.000307  0.000105  0.000142  0.007306  0.001510  0.000179
       5    0.000560 -0.000781  0.001176  0.001510  0.009431 -0.001694
       6   -0.000498 -0.000388  0.000402  0.000179 -0.001694  0.008145
-------------------------------------------------------------------------------

  Mechanical properties :

-------------------------------------------------------------------------------
  Convention :                    Reuss         Voigt         Hill
-------------------------------------------------------------------------------
  Bulk  Modulus (GPa)     =     232.38576     244.82028     238.60302
  Shear Modulus (GPa)     =     119.04598     130.05485     124.55042
-------------------------------------------------------------------------------
  Velocity S-wave (km/s)  =       6.55919       6.85577       6.70912
  Velocity P-wave (km/s)  =      11.88898      12.29417      12.09327
-------------------------------------------------------------------------------
  Compressibility (1/GPa) =    0.00430319
-------------------------------------------------------------------------------
  Stress axis :                     x             y             z
-------------------------------------------------------------------------------
  Youngs Moduli (GPa)     =     374.14166     253.85456     295.71466
-------------------------------------------------------------------------------
  Poissons Ratio (x)      =                     0.27346       0.18202
  Poissons Ratio (y)      =       0.40304                     0.34080
  Poissons Ratio (z)      =       0.23030       0.29256
-------------------------------------------------------------------------------


  Piezoelectric Strain Matrix: (Units=C/m**2)

-------------------------------------------------------------------------------
  Indices      1         2         3         4         5         6    
-------------------------------------------------------------------------------
       x    -0.00000  -0.00000  -0.00000  -0.00000  -0.00000  -0.00000
       y    -0.00000  -0.00000  -0.00000  -0.00000  -0.00000  -0.00000
       z    -0.00000  -0.00000  -0.00000  -0.00000  -0.00000  -0.00000
-------------------------------------------------------------------------------


  Piezoelectric Stress Matrix: (Units=10**-11 C/N)

-------------------------------------------------------------------------------
  Indices      1         2         3         4         5         6    
-------------------------------------------------------------------------------
       x     0.00000   0.00000   0.00000   0.00000   0.00000   0.00000
       y     0.00000   0.00000   0.00000   0.00000   0.00000   0.00000
       z     0.00000   0.00000   0.00000   0.00000   0.00000   0.00000
-------------------------------------------------------------------------------


  Static dielectric constant tensor : 

-------------------------------------------------------------------------------
              x         y         z
-------------------------------------------------------------------------------
       x     1.00000   0.00000   0.00000
       y     0.00000   1.00000   0.00000
       z     0.00000   0.00000   1.00000
--------------------------------------------------------------------------------

  Static refractive indices : 

-------------------------------------------------------------------------------
    1 =    1.00000      2 =    1.00000      3 =    1.00000
-------------------------------------------------------------------------------


  Phonon Calculation : 

  Number of k points for this configuration =      256

--------------------------------------------------------------------------------
  K point      1 =   0.062500  0.062500  0.062500  Weight =    0.004
--------------------------------------------------------------------------------

  Frequencies (cm-1) [NB: Negative implies an imaginary mode]:

   26.25   33.38   56.36  148.87  177.91  213.54  222.26  230.47  237.67
  250.91  257.66  263.87  271.72  278.88  287.36  299.56  302.91  311.41
  320.84  326.16  332.59  341.13  346.58  361.34  366.39  373.15  384.68
  392.61  397.08  402.95  406.34  414.58  424.60  428.02  434.48  442.86
  444.55  453.37  459.61  464.63  469.40  481.24  484.87  498.54  502.98
  511.35  518.28  527.95  533.01  541.43  549.46  554.64  564.27  570.55
  576.64  586.09  589.82  596.00  600.14  606.17  611.79  620.93  625.84
  632.49  641.26  651.85  654.08  659.69  670.79  671.64  681.33  688.98
  698.81  706.40  715.15  720.69  727.15  735.15  741.04  746.18  752.56
  758.52  763.47  775.83  784.91  792.30  796.35  798.11  811.13  812.90
  819.64  829.74  832.95  841.78  858.41  864.80  869.87  876.80  885.12
  892.73  904.60  911.05  917.17  920.69  933.86  941.91  943.03  954.17
  959.06  964.03  973.01  977.88  987.98  992.74  995.67 1008.77 1013.41
 1022.90 1027.56 1045.44 1051.79 1056.88 1067.96 1073.27 1080.08 1088.28
 1101.97 1106.00 1111.45 1123.08 1136.01 1140.95 1159.74 1169.30 1177.67
 1186.26 1195.88 1201.48 1204.47 1209.28 1218.28 1229.05 1238.74 1246.93
 1265.06 1270.29 1282.79 1284.09 1296.48 1308.49 1323.41 1341.80 1352.47
 1354.40 1362.74 1379.37 1384.44 1399.25 1415.36 1428.98 1441.09 1460.30
 1472.34 1478.56 1489.93 1501.39 1514.37 1521.00 1562.98 1593.88 1645.61
 1664.39 1700.18 1751.46 1752.08 1789.91 1805.19 1838.74 1845.18 1875.57
 1950.98 1961.00 2054.72 2243.22 2244.88 2306.93 2454.28 2576.37 2607.83
 2782.10 2790.91 3083.02


--------------------------------------------------------------------------------
  K point      2 =   0.062500  0.062500  0.187500  Weight =    0.004
--------------------------------------------------------------------------------

  Frequencies (cm-1) [NB: Negative implies an imaginary mode]:

   58.16   66.29   95.51  148.87  178.01  203.54  222.58  229.43  235.97
  247.46  254.70  259.46  265.79  276.11  291.90  299.79  303.10  311.50
  317.85  325.31  335.80  343.72  349.06  360.33  368.36  376.36  384.09
  389.90  394.76  400.36  408.63  414.66  420.01  427.88  432.26  443.52
  446.22  453.52  462.22  467.81  475.98  480.56  489.41  495.45  503.80
  511.91  520.02  528.78  529.66  540.81  550.16  554.51  561.38  568.40
  572.71  579.47  589.74  594.44  600.39  605.39  614.37  618.80  629.57
  633.75  640.54  648.18  652.39  661.60  669.72  676.58  680.89  690.91
  698.70  703.72  715.10  719.36  728.21  734.78  740.58  746.09  753.74
  758.55  764.41  776.70  783.88  791.21  795.76  800.15  809.72  815.38
  817.76  832.13  835.56  844.13  853.21  859.67  869.27  876.71  885.62
  898.49  903.13  911.14  917.29  923.09  931.92  941.08  944.07  952.85
  959.54  962.24  970.74  981.64  988.14  994.25  999.88 1006.39 1011.33
 1026.06 1031.36 1045.03 1052.06 1056.19 1067.89 1073.40 1079.29 1085.62
 1101.03 1105.51 1111.85 1123.65 1135.76 1142.03 1161.40 1164.44 1179.08
 1184.48 1195.47 1200.31 1203.71 1210.33 1218.70 1230.20 1240.09 1244.77
 1264.86 1270.73 1282.22 1286.85 1295.86 1308.23 1326.19 1341.08 1351.47
 1354.25 1361.99 1378.65 1384.00 1400.13 1415.00 1429.09 1442.26 1460.35
 1473.04 1477.94 1488.78 1501.87 1514.19 1521.58 1562.94 1593.63 1645.63
 1664.37 1700.17 1751.42 1752.01 1789.90 1805.23 1838.74 1845.19 1875.57
 1951.10 1961.00 2054.64 2243.22 2244.88 2306.92 2454.28 2576.40 2607.83
 2782.10 2790.89 3083.02


--------------------------------------------------------------------------------
  K point      3 =   0.062500  0.062500  0.312500  Weight =    0.004
--------------------------------------------------------------------------------

  Frequencies (cm-1) [NB: Negative implies an imaginary mode]:

   88.25   95.78  133.69  161.40  176.69  195.00  215.53  223.16  233.67
  239.93  248.05  257.18  264.03  272.82  295.77  297.82  303.32  308.44
  318.51  320.89  338.62  347.86  350.08  358.54  369.35  373.02  383.88
  386.18  391.40  400.72  411.84  413.17  421.35  426.32  435.72  445.49
  451.38  456.39  462.37  469.59  477.93  481.25  491.55  497.13  508.07
  511.13  518.73  525.21  531.26  537.69  548.85  555.38  560.10  565.24
  570.52  575.33  585.64  591.83  599.89  606.08  615.36  618.61  626.62
  630.86  641.13  647.79  655.01  659.84  673.12  677.37  678.97  689.16
  698.25  705.74  716.82  721.28  724.91  735.00  741.71  745.15  751.85
  761.25  770.70  774.50  780.29  792.17  796.17  800.97  809.19  815.36
  823.16  832.24  839.75  843.82  848.24  855.49  867.36  875.29  888.48
  898.15  904.88  907.25  916.53  925.90  932.22  941.01  945.58  949.18
  958.17  964.20  971.40  981.51  987.32  997.49 1001.96 1005.82 1014.67
 1029.26 1035.17 1044.36 1052.22 1056.40 1066.33 1074.09 1077.77 1081.35
 1099.53 1102.40 1116.69 1124.10 1135.40 1142.87 1158.34 1165.08 1179.66
 1182.71 1193.88 1198.02 1203.03 1211.54 1219.23 1230.12 1239.41 1245.55
 1264.52 1271.38 1281.25 1291.24 1295.48 1308.06 1328.75 1340.63 1350.39
 1353.99 1360.03 1377.50 1383.84 1401.75 1414.51 1429.15 1443.69 1460.26
 1473.98 1477.18 1487.33 1502.46 1513.85 1522.45 1562.88 1593.27 1645.64
 1664.35 1700.15 1751.36 1751.89 1789.88 1805.27 1838.75 1845.20 1875.58
 1951.26 1961.00 2054.53 2243.22 2244.88 2306.92 2454.28 2576.45 2607.83
 2782.10 2790.87 3083.02


--------------------------------------------------------------------------------
  K point      4 =   0.062500  0.062500  0.437500  Weight =    0.004
--------------------------------------------------------------------------------

  Frequencies (cm-1) [NB: Negative implies an imaginary mode]:

   99.21  126.97  146.60  164.86  187.72  196.75  206.69  218.89  226.59
  233.96  247.37  259.31  264.67  273.26  289.80  294.71  297.65  306.34
  312.81  326.39  340.30  346.59  349.58  355.50  365.28  375.82  380.00
  384.76  395.95  399.27  410.29  418.35  425.36  427.69  435.65  448.33
  453.86  461.38  463.06  471.34  476.10  481.50  492.06  498.45  504.08
  512.33  515.63  527.15  533.30  536.96  545.52  555.60  561.08  565.74
  570.38  572.14  581.44  589.70  598.70  605.05  613.79  619.15  625.81
  627.00  644.36  647.79  653.89  659.22  673.40  676.50  679.96  686.61
  698.25  708.71  716.86  724.57  728.46  732.83  741.95  745.69  749.16
  761.58  769.91  775.93  781.44  791.36  794.60  803.86  809.55  817.26
  826.75  831.14  837.70  842.75  848.91  857.36  864.62  874.12  891.00
  892.11  903.25  908.49  914.18  928.25  932.82  937.51  947.26  951.58
  958.52  962.93  973.17  978.54  989.42  998.12 1001.30 1007.49 1020.27
 1032.14 1037.02 1043.34 1051.76 1057.58 1064.86 1069.24 1077.18 1082.49
 1098.20 1100.40 1119.88 1124.78 1135.97 1142.44 1155.62 1167.19 1178.52
 1182.86 1190.75 1197.85 1202.59 1211.02 1220.37 1229.19 1237.94 1247.59
 1264.27 1272.06 1280.26 1293.63 1296.88 1307.89 1328.77 1342.31 1349.39
 1353.18 1358.29 1376.80 1383.88 1403.15 1414.18 1429.11 1444.52 1460.16
 1474.32 1477.01 1486.35 1502.89 1513.55 1523.10 1562.84 1593.02 1645.65
 1664.34 1700.15 1751.35 1751.79 1789.87 1805.29 1838.76 1845.21 1875.58
 1951.38 1960.99 2054.45 2243.21 2244.88 2306.92 2454.28 2576.49 2607.83
 2782.10 2790.85 3083.02


--------------------------------------------------------------------------------
  K point      5 =   0.062500  0.062500  0.562500  Weight =    0.004
--------------------------------------------------------------------------------

  Frequencies (cm-1) [NB: Negative implies an imaginary mode]:

   93.16  136.85  149.59  160.52  188.28  200.17  208.94  215.18  223.29
  233.67  249.31  260.08  265.36  274.61  282.61  291.91  295.31  309.27
  314.25  330.95  337.20  348.51  350.82  354.75  363.67  373.99  378.50
  385.83  394.02  399.95  412.63  418.80  424.43  426.57  437.37  448.14
  450.40  462.98  464.95  475.61  477.23  482.59  489.95  499.48  503.22
  508.77  521.58  523.58  531.66  537.89  544.43  555.40  558.61  566.44
  571.77  577.12  583.21  588.84  597.29  601.56  611.55  618.95  622.42
  630.49  643.31  648.76  653.82  659.76  670.96  675.88  679.54  688.76
  700.49  708.78  717.91  725.01  729.36  731.87  743.63  746.71  748.74
  758.62  769.74  775.98  782.54  784.08  798.25  806.33  811.59  816.96
  826.65  830.84  836.65  841.69  851.70  856.40  868.14  874.04  888.00
  892.46  900.65  909.61  912.76  925.19  932.53  940.06  945.01  952.19
  960.38  963.49  973.47  980.05  988.41  996.69 1001.42 1010.01 1021.10
 1029.55 1036.67 1043.18 1050.78 1059.06 1065.75 1067.85 1077.55 1084.43
 1098.16 1100.06 1119.21 1124.71 1137.03 1141.35 1157.01 1167.66 1178.17
 1182.60 1189.29 1198.37 1203.16 1209.99 1220.61 1228.46 1237.38 1247.91
 1264.98 1272.62 1279.82 1293.05 1298.40 1307.51 1327.87 1343.44 1348.73
 1352.65 1358.51 1376.92 1383.97 1403.44 1414.31 1429.02 1444.14 1460.30
 1473.51 1477.80 1486.29 1502.98 1513.47 1523.16 1562.84 1593.02 1645.65
 1664.34 1700.15 1751.42 1751.72 1789.87 1805.28 1838.78 1845.21 1875.58
 1951.39 1960.99 2054.45 2243.21 2244.88 2306.92 2454.28 2576.49 2607.83
 2782.10 2790.85 3083.02


--------------------------------------------------------------------------------
  K point      6 =   0.062500  0.062500  0.687500  Weight =    0.004
--------------------------------------------------------------------------------

  Frequencies (cm-1) [NB: Negative implies an imaginary mode]:

   76.37  105.36  150.67  165.17  170.01  197.24  210.74  218.54  232.07
  239.45  247.05  260.61  266.93  279.16  285.52  291.80  296.74  313.46
  318.04  329.46  339.60  348.07  351.37  356.29  363.26  370.64  377.89
  388.56  393.31  400.72  413.68  415.57  421.39  426.82  436.73  444.28
  448.37  457.39  466.30  473.21  477.32  486.26  494.21  497.92  504.43
  509.79  516.04  528.09  531.00  536.67  544.75  554.36  561.17  566.74
  572.98  580.77  584.94  590.28  597.89  604.64  613.12  616.67  621.72
  634.02  639.08  647.48  653.40  661.98  668.11  675.08  681.87  690.46
  703.09  708.61  717.04  721.19  727.52  735.98  742.95  743.51  752.92
  759.48  766.22  773.30  782.80  785.51  800.86  803.17  811.05  816.35
  824.61  829.52  839.20  845.21  851.66  854.38  871.91  875.52  887.10
  892.90  900.61  907.20  916.37  920.91  932.61  940.08  944.05  950.68
  961.71  965.10  974.15  982.62  985.50  995.53 1000.13 1011.89 1017.83
 1024.03 1033.35 1044.01 1050.58 1059.52 1068.18 1069.92 1080.26 1084.31
 1100.06 1101.49 1116.11 1123.18 1138.61 1139.86 1159.81 1167.63 1178.52
 1182.61 1190.60 1198.74 1203.97 1210.17 1219.12 1228.21 1237.60 1247.10
 1266.09 1272.65 1280.33 1290.98 1297.66 1307.38 1326.90 1341.96 1349.55
 1353.81 1359.86 1377.72 1384.13 1402.45 1414.83 1428.95 1442.81 1460.52
 1472.58 1478.55 1487.23 1502.63 1513.70 1522.60 1562.89 1593.28 1645.64
 1664.35 1700.16 1751.53 1751.72 1789.88 1805.24 1838.78 1845.20 1875.58
 1951.27 1960.99 2054.53 2243.22 2244.88 2306.92 2454.28 2576.45 2607.83
 2782.10 2790.87 3083.02


--------------------------------------------------------------------------------
  K point      7 =   0.062500  0.062500  0.812500  Weight =    0.004
--------------------------------------------------------------------------------

  Frequencies (cm-1) [NB: Negative implies an imaginary mode]:

   55.00   69.27  106.07  155.59  176.03  200.37  214.53  231.13  236.25
  245.29  254.97  262.70  270.35  279.34  287.68  295.24  296.88  313.51
  319.68  326.82  338.97  342.52  350.35  359.05  365.15  371.88  377.88
  391.23  393.57  404.83  408.97  417.38  419.65  430.64  434.30  441.90
  446.48  454.87  463.51  469.61  473.96  481.61  488.95  498.28  505.02
  511.45  520.97  525.31  533.69  537.83  546.26  554.18  561.55  570.68
  577.05  580.49  588.67  593.19  598.15  606.96  615.02  620.15  623.75
  631.41  637.74  648.27  650.03  663.37  669.18  673.38  683.57  686.90
  703.93  710.21  716.66  720.73  725.03  734.82  740.10  746.73  752.55
  759.70  766.12  774.90  781.50  788.42  797.96  801.48  810.55  813.74
  822.81  832.14  838.21  841.09  855.12  860.08  871.89  877.42  882.39
  894.04  902.92  908.07  917.32  920.41  932.89  937.82  944.08  952.55
  961.53  965.98  971.61  982.58  986.54  993.59  996.96 1011.75 1015.37
 1022.08 1028.98 1044.96 1050.79 1059.24 1067.84 1071.63 1082.76 1085.76
 1100.86 1105.05 1112.35 1122.79 1137.38 1140.46 1159.68 1169.88 1177.94
 1184.45 1193.53 1199.30 1203.93 1211.55 1216.86 1227.95 1238.07 1246.95
 1266.38 1271.94 1281.37 1287.56 1296.86 1307.80 1324.72 1341.61 1350.59
 1355.04 1361.34 1378.70 1384.42 1400.88 1415.29 1428.92 1441.42 1460.50
 1472.05 1478.92 1488.74 1501.99 1514.05 1521.74 1562.94 1593.63 1645.63
 1664.38 1700.17 1751.54 1751.88 1789.90 1805.19 1838.77 1845.18 1875.57
 1951.10 1960.99 2054.64 2243.22 2244.88 2306.92 2454.28 2576.40 2607.83
 2782.10 2790.89 3083.02


--------------------------------------------------------------------------------
  K point      8 =   0.062500  0.062500  0.937500  Weight =    0.004
--------------------------------------------------------------------------------

  Frequencies (cm-1) [NB: Negative implies an imaginary mode]:

   34.59   35.42   56.26  151.66  177.89  208.90  221.57  229.27  240.19
  250.64  261.14  263.66  269.87  279.72  289.30  295.07  301.84  312.05
  321.05  327.80  332.44  340.77  346.74  360.71  364.46  374.17  381.66
  390.80  397.51  403.29  407.94  417.17  423.13  428.15  436.88  441.70
  445.93  454.86  459.80  464.43  469.39  478.09  487.46  497.00  503.51
  512.87  517.84  529.02  534.83  538.29  548.22  556.16  561.53  570.96
  580.62  585.43  592.44  593.96  599.60  605.09  612.96  622.40  624.16
  629.04  641.96  648.65  654.08  660.90  668.60  674.73  682.26  683.65
  704.03  707.82  717.15  720.29  725.20  733.89  739.84  748.11  753.20
  757.54  766.65  775.74  781.59  791.96  795.15  799.77  810.22  813.66
  822.14  831.10  833.73  839.76  858.59  865.18  871.69  876.15  882.94
  892.07  904.47  911.16  915.07  920.43  934.62  939.89  943.32  953.64
  961.10  965.61  970.39  981.18  985.99  992.27  995.29 1010.95 1015.10
 1021.56 1026.12 1045.69 1051.15 1058.19 1067.57 1072.81 1081.21 1088.61
 1101.14 1106.18 1112.07 1122.79 1136.02 1140.82 1159.13 1171.58 1177.02
 1186.30 1195.59 1200.29 1204.27 1210.85 1216.89 1227.99 1238.24 1247.63
 1265.75 1270.76 1282.20 1284.74 1296.75 1308.40 1322.83 1341.92 1351.87
 1355.09 1362.40 1379.34 1384.66 1399.57 1415.47 1428.92 1440.75 1460.34
 1472.00 1478.90 1489.92 1501.43 1514.31 1521.07 1562.98 1593.88 1645.61
 1664.39 1700.18 1751.50 1752.04 1789.91 1805.18 1838.76 1845.17 1875.57
 1950.98 1960.99 2054.72 2243.22 2244.87 2306.93 2454.28 2576.37 2607.83
 2782.10 2790.91 3083.02


--------------------------------------------------------------------------------
  K point      9 =   0.062500  0.187500  0.062500  Weight =    0.004
--------------------------------------------------------------------------------

  Frequencies (cm-1) [NB: Negative implies an imaginary mode]:

   54.05   64.04  102.06  150.87  176.47  211.73  217.61  225.57  236.22
  250.60  253.66  260.49  273.07  280.06  281.86  297.73  305.06  311.49
  318.82  324.83  331.06  341.84  345.24  360.48  365.41  368.37  378.41
  388.14  398.11  402.63  411.01  416.63  427.59  430.87  431.72  439.98
  446.07  454.88  457.20  463.05  473.99  478.96  486.26  500.32  503.57
  512.95  520.94  522.97  532.32  545.54  549.84  552.76  560.77  569.47
  574.26  581.62  589.09  596.25  605.28  610.18  614.56  621.84  625.60
  638.03  641.31  653.46  658.66  661.48  671.47  675.54  680.20  689.24
  696.95  705.76  711.56  719.16  724.13  732.87  739.21  746.69  752.66
  757.73  764.44  777.20  780.04  789.09  795.52  799.82  810.46  813.91
  819.95  830.84  836.35  843.84  856.68  863.65  870.42  878.31  884.98
  892.43  904.09  908.70  915.17  925.44  934.01  941.36  945.77  951.09
  957.89  963.84  972.57  977.80  988.19  991.34  997.09 1007.08 1014.66
 1025.06 1029.56 1044.77 1052.97 1056.81 1067.65 1073.13 1079.63 1087.55
 1100.46 1106.78 1109.05 1121.64 1138.51 1145.57 1160.17 1164.40 1177.61
 1186.58 1196.16 1201.22 1204.27 1209.55 1216.76 1229.35 1237.48 1251.20
 1263.56 1270.34 1282.43 1284.86 1296.85 1308.67 1324.20 1337.27 1352.22
 1354.12 1366.41 1379.62 1384.55 1399.61 1414.43 1429.07 1441.27 1460.02
 1473.29 1477.64 1490.00 1501.21 1514.40 1521.17 1562.97 1593.83 1645.60
 1664.41 1700.19 1751.30 1752.24 1789.90 1805.23 1838.70 1845.17 1875.57
 1950.98 1960.99 2054.72 2243.22 2244.88 2306.93 2454.28 2576.37 2607.83
 2782.10 2790.91 3083.02


--------------------------------------------------------------------------------
  K point     10 =   0.062500  0.187500  0.187500  Weight =    0.004
--------------------------------------------------------------------------------

  Frequencies (cm-1) [NB: Negative implies an imaginary mode]:

   65.23   91.48  118.43  156.09  178.31  201.40  219.58  228.90  232.59
  246.37  250.27  258.83  266.18  274.66  282.18  298.01  306.69  310.00
  318.50  324.62  335.11  345.36  349.43  358.49  365.96  372.57  380.23
  386.91  395.01  402.10  411.06  415.99  420.99  429.06  433.91  439.64
  447.91  457.76  458.53  469.82  473.90  479.95  488.84  496.39  506.13
  508.22  520.88  527.34  532.29  542.88  546.79  553.49  559.13  564.67
  573.09  577.67  588.82  597.75  602.74  609.42  615.67  621.83  626.48
  635.55  641.67  652.52  658.09  661.91  672.94  677.11  682.44  691.60
  696.10  704.20  710.72  718.52  725.56  731.77  738.82  746.17  751.69
  758.86  766.25  776.38  779.36  790.47  797.44  800.84  807.59  815.46
  821.84  830.21  837.41  844.95  850.71  859.77  867.90  880.24  886.54
  898.82  903.93  908.97  914.24  926.81  934.19  939.27  945.68  951.79
  955.55  961.49  971.50  983.39  988.63  993.39 1000.70 1005.11 1011.27
 1028.10 1032.77 1044.47 1053.13 1056.89 1065.91 1075.31 1077.77 1085.35
 1099.47 1104.83 1111.32 1120.96 1138.81 1145.28 1158.99 1163.03 1178.59
 1185.19 1195.24 1200.36 1204.37 1211.42 1217.57 1230.64 1239.47 1248.48
 1262.45 1270.04 1282.33 1285.87 1296.69 1308.35 1327.40 1338.03 1351.19
 1353.56 1365.25 1378.60 1384.33 1400.59 1414.05 1429.22 1442.40 1460.19
 1474.11 1476.76 1488.86 1501.65 1514.27 1521.73 1562.93 1593.58 1645.62
 1664.39 1700.18 1751.24 1752.19 1789.88 1805.27 1838.70 1845.19 1875.58
 1951.10 1960.99 2054.64 2243.22 2244.88 2306.92 2454.28 2576.40 2607.83
 2782.10 2790.89 3083.02


--------------------------------------------------------------------------------
  K point     11 =   0.062500  0.187500  0.312500  Weight =    0.004
--------------------------------------------------------------------------------

  Frequencies (cm-1) [NB: Negative implies an imaginary mode]:

   91.88  113.26  128.25  178.68  182.27  192.01  212.74  224.58  232.23
  240.07  245.24  259.90  261.98  268.84  283.88  292.85  305.55  308.70
  319.31  322.20  336.15  347.31  352.86  357.13  368.95  371.66  382.09
  388.99  391.41  398.18  410.98  415.91  422.45  430.70  436.26  440.26
  451.49  459.90  462.63  471.53  475.23  482.41  491.18  493.37  503.79
  511.06  519.00  528.27  532.32  540.09  543.08  553.30  558.56  563.84
  570.55  574.56  585.07  596.76  601.56  606.70  616.17  621.51  627.12
  633.02  639.82  649.06  657.94  660.89  670.91  679.23  684.59  692.52
  698.61  704.98  710.70  722.27  724.50  729.07  741.76  744.81  753.19
  757.89  770.40  771.74  779.16  792.68  798.72  803.48  806.87  818.10
  822.11  830.19  838.60  844.39  846.64  856.40  866.90  880.27  888.63
  901.21  903.42  907.21  914.04  925.86  934.91  939.37  944.52  948.29
  955.48  961.98  973.09  984.07  988.71  997.21 1002.16 1006.41 1013.66
 1031.55 1035.63 1043.84 1052.32 1057.06 1063.67 1075.17 1077.37 1082.37
 1097.81 1102.10 1115.60 1120.90 1138.12 1145.18 1154.90 1165.86 1178.92
 1183.95 1194.47 1198.99 1202.95 1212.65 1218.25 1230.66 1240.92 1246.23
 1261.88 1270.52 1281.68 1288.97 1296.58 1308.42 1329.85 1339.33 1349.54
 1353.45 1362.21 1377.55 1384.62 1402.22 1413.81 1429.32 1443.35 1460.17
 1474.01 1477.02 1487.40 1502.37 1513.94 1522.54 1562.88 1593.24 1645.64
 1664.37 1700.16 1751.18 1752.07 1789.87 1805.29 1838.72 1845.20 1875.58
 1951.26 1960.99 2054.53 2243.22 2244.88 2306.92 2454.27 2576.45 2607.83
 2782.10 2790.87 3083.02


--------------------------------------------------------------------------------
  K point     12 =   0.062500  0.187500  0.437500  Weight =    0.004
--------------------------------------------------------------------------------

  Frequencies (cm-1) [NB: Negative implies an imaginary mode]:

  108.03  125.00  148.07  170.43  190.77  192.18  204.98  222.79  230.40
  235.08  249.19  258.74  261.11  273.23  282.32  292.35  296.74  307.32
  312.72  324.80  333.26  342.43  352.23  357.50  373.10  374.75  381.41
  386.24  394.65  398.23  407.81  416.97  429.35  431.66  436.66  443.66
  454.57  460.62  462.23  473.71  477.27  483.84  489.68  494.34  501.08
  511.84  518.88  527.67  531.46  540.21  543.34  554.05  560.00  562.44
  565.69  575.55  583.48  591.54  597.80  606.07  615.63  618.75  628.93
  631.60  641.22  647.84  653.19  661.72  670.30  676.25  683.44  694.33
  700.61  706.80  712.36  721.04  727.80  732.32  741.56  746.23  750.78
  759.19  766.86  773.72  781.07  793.68  797.61  802.96  807.37  818.69
  825.12  830.23  836.50  843.43  849.55  857.11  867.44  878.76  890.59
  894.68  901.51  909.23  913.47  925.15  929.88  938.97  944.70  949.78
  957.62  961.91  975.30  982.90  988.80  997.30 1002.95 1009.78 1019.86
 1033.06 1037.83 1043.20 1049.25 1056.73 1063.33 1070.28 1076.95 1084.68
 1096.82 1100.65 1117.24 1122.74 1137.60 1143.91 1154.03 1168.08 1178.33
 1183.23 1192.81 1199.08 1201.96 1211.33 1219.39 1229.75 1238.62 1247.90
 1262.03 1271.46 1280.98 1291.98 1296.99 1308.58 1329.29 1341.85 1348.47
 1352.94 1359.22 1377.28 1384.96 1403.46 1414.01 1429.28 1443.49 1460.11
 1473.14 1478.15 1486.38 1503.05 1513.56 1523.14 1562.85 1593.01 1645.65
 1664.35 1700.15 1751.18 1751.95 1789.86 1805.27 1838.76 1845.22 1875.58
 1951.38 1960.99 2054.45 2243.21 2244.88 2306.92 2454.27 2576.49 2607.83
 2782.10 2790.85 3083.02


--------------------------------------------------------------------------------
  K point     13 =   0.062500  0.187500  0.562500  Weight =    0.004
--------------------------------------------------------------------------------

  Frequencies (cm-1) [NB: Negative implies an imaginary mode]:

  100.90  139.36  153.77  164.17  182.38  195.44  209.94  219.73  224.62
  236.37  251.63  255.64  261.89  275.87  279.48  289.73  295.22  310.16
  315.05  325.30  331.56  341.92  353.83  358.34  367.03  375.38  383.05
  385.99  393.39  399.97  410.65  417.30  426.72  430.77  438.70  446.26
  449.23  459.82  462.01  475.94  480.51  485.92  489.00  496.14  504.48
  510.75  521.78  524.43  530.37  539.42  542.80  549.93  561.31  564.57
  571.52  575.37  584.68  590.03  595.74  602.31  615.06  617.04  627.15
  633.44  641.15  647.23  653.68  661.32  670.42  672.99  681.84  694.21
  702.35  706.37  713.13  725.86  726.93  733.45  742.21  745.64  750.97
  757.86  767.09  774.82  781.99  788.58  797.91  804.38  806.71  820.14
  825.09  831.92  835.66  842.88  852.71  859.80  870.90  877.49  888.47
  892.16  898.51  908.30  914.58  921.98  925.75  941.12  943.54  949.93
  959.73  965.36  976.25  983.10  986.84  995.83 1003.37 1012.70 1022.79
 1028.70 1038.14 1043.47 1046.74 1057.85 1064.03 1068.60 1077.81 1086.39
 1097.21 1101.03 1116.58 1122.69 1138.00 1142.92 1157.10 1169.16 1177.69
 1181.92 1190.95 1200.18 1202.80 1209.23 1218.97 1228.75 1236.94 1248.80
 1263.52 1272.55 1280.58 1293.07 1297.84 1308.35 1327.23 1342.50 1347.76
 1352.79 1359.24 1377.74 1385.20 1403.53 1414.64 1429.14 1442.63 1460.15
 1472.33 1479.14 1486.30 1503.32 1513.41 1523.17 1562.85 1593.02 1645.65
 1664.36 1700.15 1751.25 1751.87 1789.87 1805.23 1838.78 1845.22 1875.58
 1951.38 1960.99 2054.45 2243.21 2244.88 2306.92 2454.27 2576.49 2607.83
 2782.10 2790.85 3083.02


--------------------------------------------------------------------------------
  K point     14 =   0.062500  0.187500  0.687500  Weight =    0.004
--------------------------------------------------------------------------------

  Frequencies (cm-1) [NB: Negative implies an imaginary mode]:

   89.29  112.51  153.19  166.45  180.92  198.38  204.27  220.24  233.90
  237.37  244.13  253.76  265.73  275.25  280.65  293.82  298.96  311.36
  319.80  324.53  335.08  345.16  350.76  358.24  363.15  371.04  379.04
  390.62  394.29  404.29  410.94  416.30  421.55  430.45  438.71  443.20
  448.54  456.35  463.38  470.14  478.47  490.60  493.53  499.12  505.28
  512.83  515.16  526.67  530.88  536.49  542.00  549.48  565.03  567.96
  572.54  581.13  583.64  593.44  598.43  603.11  614.81  618.55  623.97
  632.42  639.01  647.91  652.64  662.91  669.54  672.21  683.98  690.35
  702.56  710.04  712.03  723.53  729.43  732.76  739.38  746.00  751.93
  759.89  764.33  774.12  781.91  788.54  798.85  802.65  806.42  820.97
  823.85  830.36  837.91  843.95  856.36  859.37  872.12  879.96  883.91
  892.62  897.94  906.11  917.13  919.48  925.89  940.23  943.04  950.68
  962.02  966.95  976.62  981.44  985.31  994.61 1001.57 1013.29 1021.16
 1024.49 1034.66 1043.80 1047.62 1059.26 1065.20 1070.29 1080.55 1085.59
 1099.38 1102.94 1114.06 1120.44 1139.49 1143.13 1159.98 1170.56 1177.63
 1180.28 1191.38 1200.52 1203.76 1208.76 1216.88 1228.06 1236.44 1249.09
 1265.20 1273.26 1280.90 1292.27 1297.61 1307.97 1325.64 1339.06 1348.96
 1354.12 1361.31 1378.55 1385.37 1402.54 1415.14 1429.05 1441.38 1460.11
 1471.90 1479.58 1487.27 1502.96 1513.64 1522.60 1562.89 1593.27 1645.63
 1664.38 1700.16 1751.36 1751.89 1789.88 1805.19 1838.79 1845.20 1875.58
 1951.27 1960.99 2054.53 2243.22 2244.88 2306.92 2454.27 2576.45 2607.83
 2782.10 2790.87 3083.02


--------------------------------------------------------------------------------
  K point     15 =   0.062500  0.187500  0.812500  Weight =    0.004
--------------------------------------------------------------------------------

  Frequencies (cm-1) [NB: Negative implies an imaginary mode]:

   75.05   81.10  128.38  164.23  174.98  196.68  210.87  227.49  237.58
  246.68  249.42  256.19  269.43  276.77  282.73  293.97  301.14  313.33
  319.28  325.39  329.81  340.09  352.48  358.11  365.33  370.06  375.56
  390.64  395.51  405.87  410.08  416.68  422.83  432.14  436.09  443.29
  447.00  456.40  463.02  465.60  474.26  482.05  489.60  500.87  506.60
  512.40  519.13  525.27  529.50  539.85  545.97  552.34  561.69  569.56
  577.69  585.09  589.54  592.33  598.39  607.61  617.96  621.80  624.76
  629.44  637.08  647.67  651.15  666.47  670.61  672.23  682.26  687.90
  702.92  710.24  712.81  721.13  727.43  732.34  737.89  747.41  751.63
  761.93  763.50  773.95  779.05  789.82  797.40  800.91  808.57  817.38
  822.96  832.38  838.94  842.20  858.66  862.43  871.72  877.95  881.14
  891.86  901.75  906.42  917.02  922.27  927.35  938.36  944.64  952.23
  962.09  966.15  975.47  978.12  985.16  993.27  998.36 1012.26 1019.79
 1022.32 1030.83 1044.93 1049.31 1058.99 1065.91 1071.80 1081.94 1086.69
 1100.89 1105.83 1109.79 1120.19 1139.70 1144.76 1159.29 1170.81 1177.77
 1182.33 1194.05 1200.54 1202.76 1210.13 1214.67 1227.74 1236.51 1250.01
 1265.68 1273.02 1281.72 1289.66 1296.75 1308.35 1323.91 1336.81 1350.42
 1355.09 1363.82 1379.34 1385.44 1401.07 1415.15 1429.02 1440.54 1459.93
 1471.97 1479.38 1488.81 1502.14 1514.05 1521.77 1562.94 1593.61 1645.61
 1664.40 1700.18 1751.39 1752.03 1789.89 1805.17 1838.77 1845.18 1875.58
 1951.10 1960.99 2054.64 2243.22 2244.88 2306.92 2454.28 2576.40 2607.83
 2782.10 2790.89 3083.02


--------------------------------------------------------------------------------
  K point     16 =   0.062500  0.187500  0.937500  Weight =    0.004
--------------------------------------------------------------------------------

  Frequencies (cm-1) [NB: Negative implies an imaginary mode]:

   55.33   65.20  101.51  156.11  175.83  204.98  218.08  223.37  241.81
  248.27  255.67  263.75  269.70  279.74  286.37  289.35  304.92  313.37
  320.92  325.35  326.01  338.35  348.82  357.90  363.43  372.44  376.28
  390.33  395.95  405.08  409.17  417.19  426.25  432.85  435.29  441.09
  449.59  453.22  456.78  464.42  473.23  476.94  489.08  495.86  506.07
  514.26  518.47  527.03  531.65  544.00  547.44  551.94  563.08  568.79
  579.15  587.45  588.50  594.49  601.74  607.15  615.68  623.29  626.14
  635.82  639.26  646.70  655.83  665.70  670.42  674.25  679.49  687.43
  701.45  708.96  711.63  719.80  725.32  731.72  738.30  747.51  753.88
  759.57  764.04  776.11  777.04  790.55  794.57  800.01  811.22  815.95
  819.78  832.45  836.32  843.38  859.12  864.33  872.75  875.70  882.43
  890.76  903.56  907.73  916.32  923.20  931.59  940.48  945.51  952.74
  959.56  965.34  972.99  977.02  985.65  991.63  996.94 1009.72 1018.68
 1022.38 1028.53 1045.32 1051.29 1057.82 1067.23 1072.17 1080.94 1088.63
 1100.29 1106.31 1109.62 1121.21 1138.65 1145.86 1158.97 1168.35 1177.21
 1186.05 1196.57 1200.99 1202.28 1209.90 1215.03 1228.10 1236.78 1251.28
 1264.96 1271.71 1282.22 1286.45 1296.70 1308.90 1322.76 1336.67 1351.67
 1355.04 1365.74 1379.79 1385.17 1399.85 1414.83 1429.01 1440.53 1459.86
 1472.48 1478.66 1490.00 1501.38 1514.33 1521.18 1562.97 1593.84 1645.60
 1664.41 1700.19 1751.36 1752.18 1789.90 1805.19 1838.73 1845.17 1875.57
 1950.98 1960.99 2054.72 2243.22 2244.88 2306.93 2454.28 2576.37 2607.83
 2782.10 2790.91 3083.02


--------------------------------------------------------------------------------
  K point     17 =   0.062500  0.312500  0.062500  Weight =    0.004
--------------------------------------------------------------------------------

  Frequencies (cm-1) [NB: Negative implies an imaginary mode]:

   88.70   95.72  138.87  160.45  171.72  201.26  209.20  225.26  233.68
  247.89  253.40  258.64  266.30  273.74  283.88  294.46  300.24  313.06
  316.88  324.39  328.84  338.23  349.98  355.93  363.27  367.89  377.37
  383.06  395.56  404.76  412.47  417.23  425.76  428.32  432.62  440.07
  445.28  454.62  459.44  463.16  473.12  481.52  486.13  502.10  508.42
  509.82  520.54  528.49  532.96  544.37  549.47  554.41  563.02  571.05
  572.33  579.16  587.01  595.03  605.93  611.83  619.10  625.09  628.31
  636.03  642.89  653.60  657.97  666.23  674.77  678.08  681.58  687.46
  693.29  706.37  709.15  717.66  721.61  726.97  739.65  746.22  753.27
  758.49  768.73  771.24  779.31  785.28  793.31  801.84  810.37  816.48
  821.30  831.75  838.45  845.57  853.74  864.08  871.77  877.58  886.79
  892.06  899.80  908.56  915.35  925.65  935.51  942.01  947.32  948.51
  957.91  963.94  968.87  979.38  988.04  991.58  999.16 1004.80 1013.88
 1025.42 1034.75 1045.27 1053.98 1057.71 1066.45 1072.27 1079.20 1086.81
 1098.59 1104.16 1108.59 1122.73 1142.19 1150.13 1158.51 1162.93 1174.28
 1187.07 1194.03 1201.69 1204.63 1209.88 1214.95 1229.40 1236.51 1254.68
 1263.08 1271.13 1282.96 1285.77 1296.68 1309.34 1324.45 1332.20 1351.38
 1354.31 1369.46 1379.31 1386.09 1400.19 1413.34 1429.15 1441.13 1459.67
 1474.36 1476.57 1490.09 1501.03 1514.47 1521.36 1562.96 1593.77 1645.58
 1664.44 1700.20 1751.15 1752.39 1789.88 1805.28 1838.66 1845.17 1875.58
 1950.98 1960.99 2054.72 2243.22 2244.88 2306.93 2454.27 2576.37 2607.83
 2782.10 2790.91 3083.02


--------------------------------------------------------------------------------
  K point     18 =   0.062500  0.312500  0.187500  Weight =    0.004
--------------------------------------------------------------------------------

  Frequencies (cm-1) [NB: Negative implies an imaginary mode]:

   89.48  115.43  133.80  166.93  184.56  196.18  207.53  224.88  231.39
  247.06  249.86  258.13  263.18  270.85  277.45  291.87  300.99  313.97
  319.74  325.54  332.23  340.82  352.97  359.08  364.73  370.97  375.37
  383.85  393.54  404.17  412.47  414.74  420.41  427.20  433.88  443.34
  446.89  455.36  461.39  468.03  472.52  482.05  490.23  499.05  505.73
  512.68  520.53  527.38  533.46  541.28  545.51  551.48  560.55  568.58
  573.15  578.39  585.95  598.57  605.84  608.68  619.11  622.48  627.40
  633.88  642.51  654.50  660.71  663.72  669.65  679.66  684.87  690.24
  694.89  705.61  708.24  717.46  721.83  729.43  738.40  745.34  752.83
  760.62  766.30  769.12  779.02  790.19  797.45  802.64  810.26  816.00
  821.69  830.78  838.88  844.07  848.90  860.96  870.76  880.63  888.31
  898.31  899.98  906.67  914.98  927.14  936.29  941.02  943.10  949.06
  955.65  962.55  968.51  986.06  990.41  991.46 1001.07 1003.04 1013.49
 1027.87 1037.54 1044.02 1053.23 1058.91 1063.03 1074.27 1078.54 1085.71
 1097.80 1101.63 1111.26 1119.93 1143.37 1148.86 1155.16 1164.34 1175.67
 1186.27 1193.83 1200.89 1205.39 1211.74 1215.21 1230.37 1237.37 1254.42
 1260.38 1270.28 1282.42 1285.76 1297.35 1308.87 1328.28 1333.29 1350.41
 1353.65 1367.80 1378.32 1386.19 1401.20 1413.20 1429.36 1441.79 1459.87
 1474.06 1476.81 1488.95 1501.58 1514.35 1521.87 1562.92 1593.53 1645.60
 1664.42 1700.19 1751.09 1752.33 1789.87 1805.29 1838.67 1845.18 1875.58
 1951.10 1960.99 2054.64 2243.22 2244.88 2306.92 2454.27 2576.40 2607.83
 2782.10 2790.89 3083.02


--------------------------------------------------------------------------------
  K point     19 =   0.062500  0.312500  0.312500  Weight =    0.004
--------------------------------------------------------------------------------

  Frequencies (cm-1) [NB: Negative implies an imaginary mode]:

  102.49  122.66  142.96  169.88  190.90  195.32  207.41  221.24  234.32
  237.79  247.64  258.07  261.95  268.61  276.05  286.91  300.52  314.04
  318.08  327.14  331.35  344.38  354.56  359.39  367.05  372.82  381.45
  386.26  391.39  399.72  409.82  414.96  422.59  427.47  436.00  441.14
  452.12  457.32  463.21  473.18  477.49  483.09  491.69  494.22  506.16
  510.16  519.08  524.67  533.86  537.12  546.43  551.73  559.52  562.57
  573.37  577.22  584.64  596.47  602.89  606.38  615.64  621.04  629.43
  632.98  639.93  652.50  657.45  663.30  668.63  676.94  684.66  696.72
  700.12  703.66  709.12  717.77  723.68  731.53  741.20  743.82  753.44
  758.44  763.85  769.71  780.48  791.50  800.87  807.10  809.52  814.86
  822.66  830.45  838.79  842.42  845.77  859.57  870.98  882.09  889.54
  897.27  902.98  905.99  915.30  924.14  935.05  938.78  943.12  946.33
  954.78  961.72  970.84  989.00  990.58  996.26  999.13 1008.25 1016.93
 1031.26 1038.56 1043.34 1050.01 1058.76 1061.09 1073.28 1079.66 1083.94
 1096.48 1100.40 1114.37 1117.95 1141.83 1147.41 1152.92 1167.17 1176.65
 1185.66 1193.69 1200.75 1203.40 1212.89 1215.90 1230.67 1238.63 1252.14
 1258.55 1270.61 1281.87 1287.35 1297.80 1309.09 1330.19 1336.61 1348.53
 1353.38 1363.87 1377.81 1386.65 1402.66 1413.47 1429.53 1442.02 1459.90
 1472.90 1478.21 1487.47 1502.52 1513.99 1522.62 1562.88 1593.21 1645.63
 1664.39 1700.18 1751.05 1752.20 1789.86 1805.28 1838.71 1845.21 1875.58
 1951.26 1960.99 2054.53 2243.22 2244.89 2306.92 2454.27 2576.45 2607.83
 2782.10 2790.87 3083.02


--------------------------------------------------------------------------------
  K point     20 =   0.062500  0.312500  0.437500  Weight =    0.004
--------------------------------------------------------------------------------

  Frequencies (cm-1) [NB: Negative implies an imaginary mode]:

  115.71  124.61  160.18  169.40  184.71  190.80  201.41  220.30  230.41
  239.68  248.57  256.40  265.26  271.33  279.13  289.47  299.42  308.19
  317.60  323.89  327.84  341.02  352.39  361.14  368.37  376.44  382.43
  389.08  394.20  400.32  405.59  416.96  425.86  430.42  436.63  443.81
  453.17  457.83  465.71  473.97  480.03  485.88  488.00  495.23  499.04
  508.95  519.16  527.36  534.91  536.81  546.00  553.55  557.45  558.84
  572.02  577.95  584.26  591.21  596.79  606.11  613.57  619.23  631.87
  634.61  638.18  648.56  653.59  662.95  671.77  675.99  680.56  696.45
  699.54  707.20  715.04  716.75  724.19  736.47  743.44  744.89  750.04
  758.66  762.56  771.72  782.72  788.95  800.73  804.81  809.47  817.15
  824.71  832.04  836.43  843.67  846.91  861.01  872.75  880.44  890.25
  893.11  901.71  909.69  913.87  920.11  927.92  939.00  942.00  947.35
  957.76  961.97  972.08  988.89  991.48  997.00 1001.84 1012.77 1022.03
 1033.13 1038.15 1043.12 1046.04 1056.94 1061.05 1070.72 1077.93 1086.12
 1095.92 1101.16 1113.67 1120.34 1139.68 1145.13 1153.22 1169.79 1176.74
 1184.90 1193.58 1201.22 1201.89 1210.58 1217.63 1230.26 1238.20 1250.61
 1258.80 1271.53 1281.46 1289.33 1298.17 1309.51 1329.21 1340.95 1347.38
 1352.58 1360.12 1378.00 1387.02 1403.58 1414.26 1429.51 1441.56 1459.89
 1472.05 1479.41 1486.42 1503.39 1513.52 1523.18 1562.85 1592.99 1645.64
 1664.38 1700.16 1751.06 1752.06 1789.85 1805.23 1838.75 1845.22 1875.58
 1951.38 1960.99 2054.45 2243.21 2244.89 2306.92 2454.27 2576.49 2607.83
 2782.10 2790.85 3083.02


--------------------------------------------------------------------------------
  K point     21 =   0.062500  0.312500  0.562500  Weight =    0.004
--------------------------------------------------------------------------------

  Frequencies (cm-1) [NB: Negative implies an imaginary mode]:

  112.67  134.98  159.16  170.76  180.37  187.33  203.75  220.42  229.82
  237.18  246.38  257.03  265.37  273.05  279.62  290.49  299.99  308.73
  318.16  319.31  326.23  339.68  352.28  362.15  371.07  373.43  380.01
  391.00  394.74  403.32  407.52  418.75  426.23  432.62  438.34  441.06
  449.73  455.98  464.72  474.61  479.47  486.54  489.07  497.34  500.38
  510.39  519.50  528.85  534.38  537.90  541.65  550.30  559.43  563.36
  571.59  578.84  582.68  590.48  598.19  603.93  614.78  618.33  627.64
  636.20  638.30  648.39  653.39  660.63  671.79  675.36  681.75  692.20
  697.78  706.47  715.78  721.94  729.59  734.36  739.40  745.47  751.52
  757.80  765.44  775.00  782.83  787.51  796.80  804.00  809.27  818.06
  827.61  830.61  835.02  844.91  851.26  864.42  876.28  877.57  886.19
  892.59  898.77  907.28  916.03  919.29  921.56  939.20  942.06  948.91
  958.78  966.26  971.72  987.21  991.37  996.38 1003.49 1015.14 1024.30
 1029.73 1037.89 1041.59 1045.69 1057.49 1060.79 1069.93 1078.40 1086.93
 1096.98 1102.45 1113.20 1120.40 1138.88 1144.09 1156.36 1171.46 1175.98
 1183.20 1192.29 1201.14 1204.43 1207.63 1217.15 1229.46 1236.72 1250.40
 1261.03 1272.57 1281.27 1290.92 1298.29 1309.44 1327.02 1341.60 1347.18
 1352.37 1359.79 1378.64 1387.20 1403.49 1415.05 1429.38 1440.66 1459.82
 1471.64 1480.09 1486.35 1503.69 1513.34 1523.20 1562.86 1593.00 1645.64
 1664.38 1700.16 1751.14 1751.98 1789.86 1805.19 1838.78 1845.22 1875.58
 1951.38 1960.99 2054.45 2243.21 2244.89 2306.92 2454.27 2576.49 2607.83
 2782.10 2790.86 3083.02


--------------------------------------------------------------------------------
  K point     22 =   0.062500  0.312500  0.687500  Weight =    0.004
--------------------------------------------------------------------------------

  Frequencies (cm-1) [NB: Negative implies an imaginary mode]:

  106.61  121.50  153.88  170.73  184.56  190.76  206.65  223.35  234.56
  238.68  242.15  249.62  261.45  273.40  279.00  295.38  299.44  309.06
  314.88  320.05  331.17  342.12  351.59  362.24  367.29  370.72  379.62
  388.82  394.62  404.60  413.47  419.78  423.25  429.55  437.43  441.45
  445.85  458.02  462.42  467.64  477.41  487.69  491.94  500.67  508.71
  510.08  515.60  525.98  532.31  537.50  543.06  553.29  561.50  566.45
  572.87  582.41  584.63  590.74  603.42  606.80  614.41  619.11  623.18
  635.97  638.34  649.28  652.97  661.62  669.26  675.84  685.59  688.87
  695.54  704.55  715.78  724.11  727.40  734.67  737.42  744.42  752.06
  760.78  763.63  775.64  783.42  787.72  797.03  804.38  807.23  819.81
  824.99  830.54  834.29  844.72  856.17  865.98  874.68  879.48  882.44
  892.75  895.58  905.86  915.37  920.74  924.37  937.50  942.67  951.39
  960.66  967.01  971.84  983.28  989.60  995.18 1002.98 1014.07 1022.81
 1026.27 1035.82 1042.28 1046.87 1058.63 1061.78 1072.04 1079.75 1086.50
 1098.82 1104.12 1112.24 1117.90 1140.15 1145.21 1159.86 1172.62 1174.74
 1180.77 1191.87 1201.34 1205.22 1207.86 1214.91 1228.56 1236.01 1250.90
 1263.47 1273.39 1281.55 1291.78 1297.51 1308.92 1325.10 1337.09 1348.36
 1354.07 1362.31 1379.36 1387.23 1402.61 1415.10 1429.29 1439.98 1459.60
 1471.72 1480.04 1487.35 1503.15 1513.63 1522.66 1562.89 1593.24 1645.62
 1664.40 1700.17 1751.22 1752.03 1789.87 1805.17 1838.77 1845.21 1875.58
 1951.27 1960.99 2054.53 2243.22 2244.89 2306.92 2454.27 2576.45 2607.83
 2782.10 2790.87 3083.02


--------------------------------------------------------------------------------
  K point     23 =   0.062500  0.312500  0.812500  Weight =    0.004
--------------------------------------------------------------------------------

  Frequencies (cm-1) [NB: Negative implies an imaginary mode]:

   92.31  108.40  151.35  165.51  178.47  191.15  213.72  222.48  236.95
  239.58  247.14  257.43  261.01  272.14  282.90  292.88  303.03  306.46
  315.56  320.63  328.60  338.48  353.80  358.39  366.26  369.92  379.12
  387.69  395.59  403.80  412.58  418.29  425.80  427.78  435.01  440.56
  451.07  454.47  461.01  465.85  473.31  484.19  490.27  498.20  505.47
  514.47  520.08  522.50  533.00  541.82  548.48  556.45  561.68  568.01
  574.76  583.42  586.64  594.90  602.16  608.73  618.21  621.55  625.97
  634.38  638.71  646.55  655.82  665.90  668.80  675.22  684.11  688.92
  697.13  703.80  713.47  720.11  724.53  733.13  736.66  747.65  751.92
  761.43  764.38  776.08  779.38  785.95  796.08  804.40  809.76  817.10
  823.89  829.79  838.30  842.66  859.51  866.02  873.14  877.82  882.17
  888.53  898.02  905.91  918.99  923.06  926.65  936.70  945.45  953.01
  961.95  964.53  971.72  978.75  986.57  993.77 1000.94 1011.87 1019.82
 1024.18 1033.96 1045.08 1048.67 1058.19 1063.93 1072.83 1079.93 1088.40
 1099.65 1104.90 1108.86 1119.36 1141.45 1147.96 1160.01 1170.06 1174.50
 1182.40 1192.85 1200.72 1204.52 1209.82 1213.09 1228.11 1235.96 1252.18
 1264.53 1273.52 1282.34 1291.29 1295.88 1309.19 1323.31 1333.27 1349.85
 1355.01 1365.79 1379.87 1387.06 1401.33 1414.46 1429.21 1439.92 1459.39
 1472.28 1479.28 1488.91 1502.11 1514.09 1521.89 1562.94 1593.56 1645.59
 1664.43 1700.18 1751.24 1752.18 1789.88 1805.19 1838.73 1845.18 1875.58
 1951.10 1960.99 2054.64 2243.22 2244.88 2306.92 2454.27 2576.40 2607.83
 2782.10 2790.89 3083.02


--------------------------------------------------------------------------------
  K point     24 =   0.062500  0.312500  0.937500  Weight =    0.004
--------------------------------------------------------------------------------

  Frequencies (cm-1) [NB: Negative implies an imaginary mode]:

   84.24   98.75  145.45  159.61  169.15  198.41  214.24  220.13  239.27
  247.47  249.33  260.03  268.91  272.35  282.21  290.85  305.82  311.31
  314.99  320.39  324.66  338.43  350.33  356.45  364.07  368.05  379.89
  386.44  395.93  402.76  414.17  415.86  425.70  429.75  433.67  439.64
  448.68  454.57  458.59  463.76  472.02  482.45  488.12  496.78  505.27
  513.31  522.50  526.49  533.30  545.04  550.59  557.25  563.01  567.51
  577.13  581.63  584.86  596.48  602.35  609.64  620.84  624.67  628.34
  636.21  641.66  646.82  658.27  667.90  671.92  675.05  681.33  688.17
  698.28  705.36  709.83  715.51  724.98  729.49  736.88  748.34  752.35
  760.16  767.36  775.15  778.09  783.52  792.24  803.44  812.26  814.44
  822.91  831.36  838.81  844.27  858.28  865.17  872.99  877.57  882.34
  888.61  899.45  907.39  918.37  924.47  930.34  940.24  948.06  952.24
  958.56  964.87  970.25  976.92  985.77  992.12  999.45 1008.42 1016.36
 1024.60 1032.95 1046.05 1051.85 1057.62 1066.54 1071.54 1079.82 1089.06
 1098.40 1104.42 1108.58 1122.40 1141.39 1150.22 1159.49 1165.48 1173.82
 1186.23 1193.88 1201.26 1203.53 1209.92 1213.71 1228.48 1236.18 1253.67
 1264.35 1272.66 1282.96 1288.29 1295.86 1309.79 1322.34 1332.02 1351.00
 1355.02 1368.53 1379.93 1386.58 1400.29 1413.77 1429.12 1440.41 1459.42
 1473.26 1477.97 1490.09 1501.22 1514.38 1521.36 1562.97 1593.78 1645.58
 1664.44 1700.19 1751.21 1752.34 1789.89 1805.23 1838.69 1845.17 1875.58
 1950.98 1960.99 2054.72 2243.22 2244.88 2306.93 2454.27 2576.37 2607.83
 2782.10 2790.91 3083.02


--------------------------------------------------------------------------------
  K point     25 =   0.062500  0.437500  0.062500  Weight =    0.004
--------------------------------------------------------------------------------

  Frequencies (cm-1) [NB: Negative implies an imaginary mode]:

  116.36  122.87  141.11  158.89  177.14  200.66  207.66  225.50  229.37
  244.93  250.96  255.30  263.84  270.70  282.36  288.45  295.71  310.09
  318.35  324.77  327.24  338.29  348.72  354.71  364.01  369.44  375.19
  383.44  396.17  404.86  410.82  415.93  423.20  427.53  430.72  436.60
  447.88  453.17  461.17  467.85  472.21  479.42  490.13  502.85  508.97
  515.19  520.57  530.15  533.02  542.85  550.57  556.53  563.74  570.01
  576.68  579.05  585.31  592.29  600.26  613.68  621.86  625.87  632.70
  640.46  643.09  651.24  657.63  665.48  670.56  679.01  683.41  688.40
  692.84  703.53  709.79  717.16  721.19  724.03  741.26  745.07  752.64
  759.33  767.10  774.05  779.31  784.94  788.47  802.38  811.54  819.54
  822.24  831.17  839.71  845.67  851.60  865.06  872.76  877.03  886.63
  891.53  899.96  906.95  915.43  924.06  937.78  941.92  945.14  949.85
  958.36  963.78  967.06  978.89  989.02  991.93 1000.02 1005.16 1012.76
 1024.22 1038.53 1046.33 1054.01 1060.20 1064.70 1070.11 1079.38 1087.17
 1096.83 1101.99 1109.16 1123.60 1146.51 1151.43 1156.78 1165.01 1170.09
 1186.49 1191.48 1202.26 1204.78 1210.36 1214.24 1229.14 1236.31 1254.48
 1264.10 1272.55 1284.84 1286.10 1296.11 1310.24 1322.56 1330.05 1350.86
 1354.47 1370.63 1378.94 1387.86 1400.67 1412.68 1429.21 1440.73 1459.46
 1474.57 1476.35 1490.15 1500.97 1514.52 1521.47 1562.95 1593.73 1645.56
 1664.46 1700.21 1751.07 1752.48 1789.87 1805.30 1838.63 1845.17 1875.58
 1950.98 1960.99 2054.72 2243.22 2244.89 2306.93 2454.27 2576.37 2607.83
 2782.10 2790.91 3083.02


--------------------------------------------------------------------------------
  K point     26 =   0.062500  0.437500  0.187500  Weight =    0.004
--------------------------------------------------------------------------------

  Frequencies (cm-1) [NB: Negative implies an imaginary mode]:

  116.97  123.28  147.58  161.37  174.34  198.54  209.94  227.07  231.11
  243.70  249.44  255.65  262.30  269.56  276.47  286.95  295.37  310.42
  319.92  326.15  332.35  338.47  350.97  359.28  365.58  369.03  377.24
  382.01  396.41  404.41  411.14  414.25  419.40  425.01  432.03  438.78
  451.50  455.15  462.41  468.44  476.80  482.07  492.92  499.04  510.69
  512.02  517.02  527.00  536.19  542.32  545.76  555.13  558.69  568.61
  577.51  579.81  586.52  593.50  602.00  609.69  617.81  623.26  631.38
  637.29  643.62  652.05  661.08  661.47  668.99  677.80  681.83  692.23
  694.37  704.85  710.40  713.07  722.46  728.42  740.11  745.68  754.30
  757.96  764.84  770.44  780.23  789.13  794.39  806.15  812.00  817.81
  820.72  830.80  837.98  843.95  849.51  864.69  873.18  879.70  887.51
  894.81  900.50  902.78  916.41  925.96  938.14  938.99  943.42  948.73
  957.71  961.54  966.50  984.00  990.04  992.74 1000.98 1006.18 1014.67
[...]
--------------------------------------------------------------------------------
  Zero point energy            =       11.397496 eV
  Entropy                      =        0.000223 eV/K
                               =       21.483465 J/(mol.K)
  Helmholtz free-energy        =     -410.066301 eV
                               =   -39565.126107 kJmol-1
  Free energy (equipartition)  =     -417.940697 eV
  - T*S       (equipartition)  =        2.194928 eV
  Uvib        (equipartition)  =        1.323623 eV
  Mean kinetic energy          =        5.705380 eV
  Heat capacity - const volume =        0.000600 eV/K
                               =       57.863329 J/(mol.K)
--------------------------------------------------------------------------------
  Phonon properties (per mole of unit cells): Temperature =     90.000 K
--------------------------------------------------------------------------------
  Zero point energy            =       11.397496 eV
  Entropy                      =        0.000304 eV/K
                               =       29.308661 J/(mol.K)
  Helmholtz free-energy        =     -410.068923 eV
                               =   -39565.379091 kJmol-1
  Free energy (equipartition)  =     -417.676266 eV
  - T*S       (equipartition)  =        2.293906 eV
  Uvib        (equipartition)  =        1.489076 eV
  Mean kinetic energy          =        5.708832 eV
  Heat capacity - const volume =        0.000784 eV/K
                               =       75.644420 J/(mol.K)
--------------------------------------------------------------------------------
  Phonon properties (per mole of unit cells): Temperature =    100.000 K
--------------------------------------------------------------------------------
  Zero point energy            =       11.397496 eV
  Entropy                      =        0.000397 eV/K
                               =       38.266977 J/(mol.K)
  Helmholtz free-energy        =     -410.072415 eV
                               =   -39565.716058 kJmol-1
  Free energy (equipartition)  =     -417.430257 eV
  - T*S       (equipartition)  =        2.374463 eV
  Uvib        (equipartition)  =        1.654529 eV
  Mean kinetic energy          =        5.713247 eV
  Heat capacity - const volume =        0.000984 eV/K
                               =       94.981176 J/(mol.K)
--------------------------------------------------------------------------------
  Phonon properties (per mole of unit cells): Temperature =    110.000 K
--------------------------------------------------------------------------------
  Zero point energy            =       11.397496 eV
  Entropy                      =        0.000500 eV/K
                               =       48.277486 J/(mol.K)
  Helmholtz free-energy        =     -410.076891 eV
                               =   -39566.147938 kJmol-1
  Free energy (equipartition)  =     -417.200821 eV
  - T*S       (equipartition)  =        2.438446 eV
  Uvib        (equipartition)  =        1.819981 eV
  Mean kinetic energy          =        5.718699 eV
  Heat capacity - const volume =        0.001198 eV/K
                               =      115.601264 J/(mol.K)
--------------------------------------------------------------------------------
  Phonon properties (per mole of unit cells): Temperature =    120.000 K
--------------------------------------------------------------------------------
  Zero point energy            =       11.397496 eV
  Entropy                      =        0.000614 eV/K
                               =       59.258334 J/(mol.K)
  Helmholtz free-energy        =     -410.082456 eV
                               =   -39566.684842 kJmol-1
  Free energy (equipartition)  =     -416.986446 eV
  - T*S       (equipartition)  =        2.487368 eV
  Uvib        (equipartition)  =        1.985434 eV
  Mean kinetic energy          =        5.725247 eV
  Heat capacity - const volume =        0.001423 eV/K
                               =      137.270455 J/(mol.K)
--------------------------------------------------------------------------------
  Phonon properties (per mole of unit cells): Temperature =    130.000 K
--------------------------------------------------------------------------------
  Zero point energy            =       11.397496 eV
  Entropy                      =        0.000737 eV/K
                               =       71.129967 J/(mol.K)
  Helmholtz free-energy        =     -410.089205 eV
                               =   -39567.336073 kJmol-1
  Free energy (equipartition)  =     -416.785876 eV
  - T*S       (equipartition)  =        2.522486 eV
  Uvib        (equipartition)  =        2.150887 eV
  Mean kinetic energy          =        5.732940 eV
  Heat capacity - const volume =        0.001656 eV/K
                               =      159.788938 J/(mol.K)
--------------------------------------------------------------------------------
  Phonon properties (per mole of unit cells): Temperature =    140.000 K
--------------------------------------------------------------------------------
  Zero point energy            =       11.397496 eV
  Entropy                      =        0.000869 eV/K
                               =       83.816830 J/(mol.K)
  Helmholtz free-energy        =     -410.097228 eV
                               =   -39568.110158 kJmol-1
  Free energy (equipartition)  =     -416.598045 eV
  - T*S       (equipartition)  =        2.544864 eV
  Uvib        (equipartition)  =        2.316340 eV
  Mean kinetic energy          =        5.741819 eV
  Heat capacity - const volume =        0.001897 eV/K
                               =      182.986554 J/(mol.K)
--------------------------------------------------------------------------------
  Phonon properties (per mole of unit cells): Temperature =    150.000 K
--------------------------------------------------------------------------------
  Zero point energy            =       11.397496 eV
  Entropy                      =        0.001008 eV/K
                               =       97.248143 J/(mol.K)
  Helmholtz free-energy        =     -410.106605 eV
                               =   -39569.014891 kJmol-1
  Free energy (equipartition)  =     -416.422042 eV
  - T*S       (equipartition)  =        2.555414 eV
  Uvib        (equipartition)  =        2.481793 eV
  Mean kinetic energy          =        5.751915 eV
  Heat capacity - const volume =        0.002142 eV/K
                               =      206.717967 J/(mol.K)
--------------------------------------------------------------------------------
  Phonon properties (per mole of unit cells): Temperature =    160.000 K
--------------------------------------------------------------------------------
  Zero point energy            =       11.397496 eV
  Entropy                      =        0.001154 eV/K
                               =      111.358133 J/(mol.K)
  Helmholtz free-energy        =     -410.117410 eV
                               =   -39570.057382 kJmol-1
  Free energy (equipartition)  =     -416.257078 eV
  - T*S       (equipartition)  =        2.554925 eV
  Uvib        (equipartition)  =        2.647246 eV
  Mean kinetic energy          =        5.763251 eV
  Heat capacity - const volume =        0.002393 eV/K
                               =      230.858292 J/(mol.K)
--------------------------------------------------------------------------------
  Phonon properties (per mole of unit cells): Temperature =    170.000 K
--------------------------------------------------------------------------------
  Zero point energy            =       11.397496 eV
  Entropy                      =        0.001307 eV/K
                               =      126.085940 J/(mol.K)
  Helmholtz free-energy        =     -410.129710 eV
                               =   -39571.244112 kJmol-1
  Free energy (equipartition)  =     -416.102461 eV
  - T*S       (equipartition)  =        2.544089 eV
  Uvib        (equipartition)  =        2.812699 eV
  Mean kinetic energy          =        5.775847 eV
  Heat capacity - const volume =        0.002646 eV/K
                               =      255.299359 J/(mol.K)
--------------------------------------------------------------------------------
  Phonon properties (per mole of unit cells): Temperature =    180.000 K
--------------------------------------------------------------------------------
  Zero point energy            =       11.397496 eV
  Entropy                      =        0.001465 eV/K
                               =      141.375361 J/(mol.K)
  Helmholtz free-energy        =     -410.143565 eV
                               =   -39572.580973 kJmol-1
  Free energy (equipartition)  =     -415.957582 eV
  - T*S       (equipartition)  =        2.523515 eV
  Uvib        (equipartition)  =        2.978151 eV
  Mean kinetic energy          =        5.789715 eV
  Heat capacity - const volume =        0.002901 eV/K
                               =      279.946665 J/(mol.K)
--------------------------------------------------------------------------------
  Phonon properties (per mole of unit cells): Temperature =    190.000 K
--------------------------------------------------------------------------------
  Zero point energy            =       11.397496 eV
  Entropy                      =        0.001629 eV/K
                               =      157.174515 J/(mol.K)
  Helmholtz free-energy        =     -410.159032 eV
                               =   -39574.073318 kJmol-1
  Free energy (equipartition)  =     -415.821900 eV
  - T*S       (equipartition)  =        2.493744 eV
  Uvib        (equipartition)  =        3.143604 eV
  Mean kinetic energy          =        5.804864 eV
  Heat capacity - const volume =        0.003158 eV/K
                               =      304.716969 J/(mol.K)
--------------------------------------------------------------------------------
  Phonon properties (per mole of unit cells): Temperature =    200.000 K
--------------------------------------------------------------------------------
  Zero point energy            =       11.397496 eV
  Entropy                      =        0.001798 eV/K
                               =      173.435483 J/(mol.K)
  Helmholtz free-energy        =     -410.176161 eV
                               =   -39575.726002 kJmol-1
  Free energy (equipartition)  =     -415.694930 eV
  - T*S       (equipartition)  =        2.455262 eV
  Uvib        (equipartition)  =        3.309057 eV
  Mean kinetic energy          =        5.821298 eV
  Heat capacity - const volume =        0.003415 eV/K
                               =      329.536428 J/(mol.K)
--------------------------------------------------------------------------------
  Phonon properties (per mole of unit cells): Temperature =    210.000 K
--------------------------------------------------------------------------------
  Zero point energy            =       11.397496 eV
  Entropy                      =        0.001970 eV/K
                               =      190.113957 J/(mol.K)
  Helmholtz free-energy        =     -410.194998 eV
                               =   -39577.543419 kJmol-1
  Free energy (equipartition)  =     -415.576236 eV
  - T*S       (equipartition)  =        2.408503 eV
  Uvib        (equipartition)  =        3.474510 eV
  Mean kinetic energy          =        5.839018 eV
  Heat capacity - const volume =        0.003672 eV/K
                               =      354.339190 J/(mol.K)
--------------------------------------------------------------------------------
  Phonon properties (per mole of unit cells): Temperature =    220.000 K
--------------------------------------------------------------------------------
  Zero point energy            =       11.397496 eV
  Entropy                      =        0.002147 eV/K
                               =      207.168916 J/(mol.K)
  Helmholtz free-energy        =     -410.215583 eV
                               =   -39579.529536 kJmol-1
  Free energy (equipartition)  =     -415.465423 eV
  - T*S       (equipartition)  =        2.353862 eV
  Uvib        (equipartition)  =        3.639963 eV
  Mean kinetic energy          =        5.858021 eV
  Heat capacity - const volume =        0.003929 eV/K
                               =      379.066332 J/(mol.K)
--------------------------------------------------------------------------------
  Phonon properties (per mole of unit cells): Temperature =    230.000 K
--------------------------------------------------------------------------------
  Zero point energy            =       11.397496 eV
  Entropy                      =        0.002327 eV/K
                               =      224.562327 J/(mol.K)
  Helmholtz free-energy        =     -410.237953 eV
                               =   -39581.687925 kJmol-1
  Free energy (equipartition)  =     -415.362134 eV
  - T*S       (equipartition)  =        2.291699 eV
  Uvib        (equipartition)  =        3.805416 eV
  Mean kinetic energy          =        5.878303 eV
  Heat capacity - const volume =        0.004184 eV/K
                               =      403.665067 J/(mol.K)
--------------------------------------------------------------------------------
  Phonon properties (per mole of unit cells): Temperature =    240.000 K
--------------------------------------------------------------------------------
  Zero point energy            =       11.397496 eV
  Entropy                      =        0.002511 eV/K
                               =      242.258890 J/(mol.K)
  Helmholtz free-energy        =     -410.262142 eV
                               =   -39584.021793 kJmol-1
  Free energy (equipartition)  =     -415.266041 eV
  - T*S       (equipartition)  =        2.222339 eV
  Uvib        (equipartition)  =        3.970868 eV
  Mean kinetic energy          =        5.899856 eV
  Heat capacity - const volume =        0.004437 eV/K
                               =      428.088141 J/(mol.K)
--------------------------------------------------------------------------------
  Phonon properties (per mole of unit cells): Temperature =    250.000 K
--------------------------------------------------------------------------------
  Zero point energy            =       11.397496 eV
  Entropy                      =        0.002697 eV/K
                               =      260.225800 J/(mol.K)
  Helmholtz free-energy        =     -410.288179 eV
                               =   -39586.534004 kJmol-1
  Free energy (equipartition)  =     -415.176843 eV
  - T*S       (equipartition)  =        2.146084 eV
  Uvib        (equipartition)  =        4.136321 eV
  Mean kinetic energy          =        5.922668 eV
  Heat capacity - const volume =        0.004688 eV/K
                               =      452.293363 J/(mol.K)
--------------------------------------------------------------------------------
  Phonon properties (per mole of unit cells): Temperature =    260.000 K
--------------------------------------------------------------------------------
  Zero point energy            =       11.397496 eV
  Entropy                      =        0.002886 eV/K
                               =      278.432555 J/(mol.K)
  Helmholtz free-energy        =     -410.316091 eV
                               =   -39589.227108 kJmol-1
  Free energy (equipartition)  =     -415.094266 eV
  - T*S       (equipartition)  =        2.063208 eV
  Uvib        (equipartition)  =        4.301774 eV
  Mean kinetic energy          =        5.946728 eV
  Heat capacity - const volume =        0.004936 eV/K
                               =      476.243225 J/(mol.K)
--------------------------------------------------------------------------------
  Phonon properties (per mole of unit cells): Temperature =    270.000 K
--------------------------------------------------------------------------------
  Zero point energy            =       11.397496 eV
  Entropy                      =        0.003077 eV/K
                               =      296.850771 J/(mol.K)
  Helmholtz free-energy        =     -410.345902 eV
                               =   -39592.103360 kJmol-1
  Free energy (equipartition)  =     -415.018053 eV
  - T*S       (equipartition)  =        1.973968 eV
  Uvib        (equipartition)  =        4.467227 eV
  Mean kinetic energy          =        5.972023 eV
  Heat capacity - const volume =        0.005181 eV/K
                               =      499.904585 J/(mol.K)
--------------------------------------------------------------------------------
  Phonon properties (per mole of unit cells): Temperature =    280.000 K
--------------------------------------------------------------------------------
  Zero point energy            =       11.397496 eV
  Entropy                      =        0.003269 eV/K
                               =      315.454032 J/(mol.K)
  Helmholtz free-energy        =     -410.377631 eV
                               =   -39595.164740 kJmol-1
  Free energy (equipartition)  =     -414.947970 eV
  - T*S       (equipartition)  =        1.878598 eV
  Uvib        (equipartition)  =        4.632680 eV
  Mean kinetic energy          =        5.998535 eV
  Heat capacity - const volume =        0.005423 eV/K
                               =      523.248378 J/(mol.K)
--------------------------------------------------------------------------------
  Phonon properties (per mole of unit cells): Temperature =    290.000 K
--------------------------------------------------------------------------------
  Zero point energy            =       11.397496 eV
  Entropy                      =        0.003464 eV/K
                               =      334.217752 J/(mol.K)
  Helmholtz free-energy        =     -410.411297 eV
                               =   -39598.412975 kJmol-1
  Free energy (equipartition)  =     -414.883797 eV
  - T*S       (equipartition)  =        1.777318 eV
  Uvib        (equipartition)  =        4.798133 eV
  Mean kinetic energy          =        6.026248 eV
  Heat capacity - const volume =        0.005662 eV/K
                               =      546.249358 J/(mol.K)
--------------------------------------------------------------------------------
  Phonon properties (per mole of unit cells): Temperature =    300.000 K
--------------------------------------------------------------------------------
  Zero point energy            =       11.397496 eV
  Entropy                      =        0.003660 eV/K
                               =      353.119048 J/(mol.K)
  Helmholtz free-energy        =     -410.446915 eV
                               =   -39601.849553 kJmol-1
  Free energy (equipartition)  =     -414.825331 eV
  - T*S       (equipartition)  =        1.670332 eV
  Uvib        (equipartition)  =        4.963586 eV
  Mean kinetic energy          =        6.055144 eV
  Heat capacity - const volume =        0.005896 eV/K
                               =      568.885842 J/(mol.K)
--------------------------------------------------------------------------------

  Time to end of properties =      73.2631 seconds


  Peak dynamic memory used =       3.43 MB 


  Timing analysis for GULP :

--------------------------------------------------------------------------------
  Task / Subroutine                                          Time (Seconds)
--------------------------------------------------------------------------------
  Calculation of real space energy and derivatives                0.0923
  Calculation of Brenner energy and derivatives                  62.3270
  Calculation of phonons                                         72.9598
  Disk read/write operations to scratch files                     0.2741
--------------------------------------------------------------------------------
  Total CPU time                                                 73.2633
--------------------------------------------------------------------------------


  Job Finished at 20:13.56 29th July       2020                               

