********************************************************************************
*                       GENERAL UTILITY LATTICE PROGRAM                        *
*                                 Julian Gale                                  *
*                       Curtin Institute for Computation                       *
*                    School of Molecular and Life Sciences                     *
*                    Curtin University, Western Australia                      *
********************************************************************************
* Version = 5.2.0 * Last modified =  17th December 2019                        *
********************************************************************************
*  optimise     - perform optimisation run                                     *
*  conv         - constant volume calculation                                  *
*  isotropic    - only isotropic cell expansion to be allowed                  *
*  lbfgs        - use limited memory BFGS update                               *
********************************************************************************
* ASE calculation                                                              *
********************************************************************************


  Job Started  at 21:51.05 30th July       2020                               

  Number of CPUs =     1


  Total number of configurations input =      1

********************************************************************************
*  Input for Configuration =   1                                               *
********************************************************************************

  Formula = C64                                                         

  Number of irreducible atoms/shells =      64


  Total number atoms/shells =      64

  Dimensionality = 3               :  Bulk   



  Cartesian lattice vectors (Angstroms) :

        7.612430    0.000000    0.000000
        0.000000    7.612430    0.000000
        0.000000    0.000000    7.612430

  Cell parameters (Angstroms/Degrees):

  a =       7.6124    alpha =  90.0000
  b =       7.6124    beta  =  90.0000
  c =       7.6124    gamma =  90.0000

  Initial cell volume =         441.133395 Angs**3

  Temperature of configuration =   0.00     K 

  Pressure of configuration =         0.000 GPa 

  Fractional coordinates of asymmetric unit :

--------------------------------------------------------------------------------
   No.  Atomic       x           y          z         Charge      Occupancy
        Label      (Frac)      (Frac)     (Frac)        (e)         (Frac)  
--------------------------------------------------------------------------------
      1 C     c    0.476040    0.519880    0.065020     0.00000    1.000000    
      2 C     c    0.408230 *  0.739570 *  0.304320 *   0.00000    1.000000    
      3 C     c    0.283500 *  0.257800 *  0.903540 *   0.00000    1.000000    
      4 C     c    0.121740 *  0.015000 *  0.619820 *   0.00000    1.000000    
      5 C     c    0.961630 *  0.858120 *  0.881770 *   0.00000    1.000000    
      6 C     c    0.791230 *  0.484810 *  0.577650 *   0.00000    1.000000    
      7 C     c    0.611650 *  0.418220 *  0.674250 *   0.00000    1.000000    
      8 C     c    0.791740 *  0.717880 *  0.328190 *   0.00000    1.000000    
      9 C     c    0.885060 *  0.252990 *  0.323860 *   0.00000    1.000000    
     10 C     c    0.677960 *  0.164610 *  0.130500 *   0.00000    1.000000    
     11 C     c    0.876740 *  0.039070 *  0.362680 *   0.00000    1.000000    
     12 C     c    0.961970 *  0.955970 *  0.523330 *   0.00000    1.000000    
     13 C     c    0.510700 *  0.062220 *  0.141510 *   0.00000    1.000000    
     14 C     c    0.554090 *  0.985780 *  0.487090 *   0.00000    1.000000    
     15 C     c    0.461770 *  0.326030 *  0.993000 *   0.00000    1.000000    
     16 C     c    0.946890 *  0.357160 *  0.482980 *   0.00000    1.000000    
     17 C     c    0.154070 *  0.421170 *  0.828520 *   0.00000    1.000000    
     18 C     c    0.831770 *  0.738730 *  0.814560 *   0.00000    1.000000    
     19 C     c    0.920120 *  0.954310 *  0.037080 *   0.00000    1.000000    
     20 C     c    0.147610 *  0.916410 *  0.794660 *   0.00000    1.000000    
     21 C     c    0.868360 *  0.656000 *  0.654380 *   0.00000    1.000000    
     22 C     c    0.879940 *  0.132590 *  0.720880 *   0.00000    1.000000    
     23 C     c    0.499460 *  0.600100 *  0.409770 *   0.00000    1.000000    
     24 C     c    0.653150 *  0.710260 *  0.882190 *   0.00000    1.000000    
     25 C     c    0.638740 *  0.591320 *  0.028020 *   0.00000    1.000000    
     26 C     c    0.781760 *  0.980410 *  0.706670 *   0.00000    1.000000    
     27 C     c    0.472510 *  0.453970 *  0.572730 *   0.00000    1.000000    
     28 C     c    0.358710 *  0.639340 *  0.140240 *   0.00000    1.000000    
     29 C     c    0.589570 *  0.956860 *  0.680290 *   0.00000    1.000000    
     30 C     c    0.718040 *  0.337390 *  0.232610 *   0.00000    1.000000    
     31 C     c    0.001140 *  0.187050 *  0.148080 *   0.00000    1.000000    
     32 C     c    0.965430 *  0.404090 *  0.890210 *   0.00000    1.000000    
     33 C     c    0.506120 *  0.789580 *  0.785060 *   0.00000    1.000000    
     34 C     c    0.837780 *  0.141480 *  0.024540 *   0.00000    1.000000    
     35 C     c    0.349610 *  0.176980 *  0.704320 *   0.00000    1.000000    
     36 C     c    0.114160 *  0.481020 *  0.449370 *   0.00000    1.000000    
     37 C     c    0.177470 *  0.156740 *  0.076340 *   0.00000    1.000000    
     38 C     c    0.281670 *  0.397800 *  0.512320 *   0.00000    1.000000    
     39 C     c    0.098910 *  0.680840 *  0.419430 *   0.00000    1.000000    
     40 C     c    0.930150 *  0.506570 *  0.035090 *   0.00000    1.000000    
     41 C     c    0.825710 *  0.254140 *  0.863560 *   0.00000    1.000000    
     42 C     c    0.362940 *  0.214000 *  0.165770 *   0.00000    1.000000    
     43 C     c    0.399470 *  0.120970 *  0.502590 *   0.00000    1.000000    
     44 C     c    0.983380 *  0.715560 *  0.265900 *   0.00000    1.000000    
     45 C     c    0.394910 *  0.281560 *  0.358750 *   0.00000    1.000000    
     46 C     c    0.560620 *  0.397310 *  0.336180 *   0.00000    1.000000    
     47 C     c    0.315270 *  0.767480 *  0.789300 *   0.00000    1.000000    
     48 C     c    0.937820 *  0.909940 *  0.211780 *   0.00000    1.000000    
     49 C     c    0.766280 *  0.492620 *  0.107940 *   0.00000    1.000000    
     50 C     c    0.254780 *  0.806800 *  0.411390 *   0.00000    1.000000    
     51 C     c    0.703920 *  0.556230 *  0.406270 *   0.00000    1.000000    
     52 C     c    0.957750 *  0.762410 *  0.534000 *   0.00000    1.000000    
     53 C     c    0.232480 *  0.605790 *  0.869400 *   0.00000    1.000000    
     54 C     c    0.043270 *  0.616500 *  0.115680 *   0.00000    1.000000    
     55 C     c    0.619960 *  0.289910 *  0.840110 *   0.00000    1.000000    
     56 C     c    0.437720 *  0.008810 *  0.964830 *   0.00000    1.000000    
     57 C     c    0.520090 *  0.915040 *  0.281560 *   0.00000    1.000000    
     58 C     c    0.206950 *  0.638760 *  0.050740 *   0.00000    1.000000    
     59 C     c    0.024090 *  0.212260 *  0.608440 *   0.00000    1.000000    
     60 C     c    0.263200 *  0.965980 *  0.492200 *   0.00000    1.000000    
     61 C     c    0.714850 *  0.905160 *  0.357290 *   0.00000    1.000000    
     62 C     c    0.247900 *  0.994030 *  0.956370 *   0.00000    1.000000    
     63 C     c    0.509550 *  0.102510 *  0.802490 *   0.00000    1.000000    
     64 C     c    0.189960 *  0.302950 *  0.668360 *   0.00000    1.000000    
--------------------------------------------------------------------------------


  Constraints : 

--------------------------------------------------------------------------------
  Constraint no.      Unconstrained     Constrained    Coefficient    Offset
                         Variable         Variable
--------------------------------------------------------------------------------
           1              Strain 1        Strain 2       1.00000      0.0000
           2              Strain 1        Strain 3       1.00000      0.0000
--------------------------------------------------------------------------------


********************************************************************************
*  General input information                                                   *
********************************************************************************

  Species output for all configurations : 

--------------------------------------------------------------------------------
  Species    Type    Atomic    Atomic    Charge       Radii (Angs)     Library
                     Number     Mass       (e)     Cova   Ionic  VDW   Symbol
--------------------------------------------------------------------------------
    C        Core        6      12.01   0.000000   0.770  0.000  1.530          
--------------------------------------------------------------------------------


  Lattice summation method               =    Ewald          (3-D)
                                         =    Parry          (2-D)
                                         =    Saunders et al (1-D)
  Accuracy factor for lattice sums       =   12.000


  Analytic derivatives to be used

  Time limit = Infinity

  Maximum range for interatomic potentials =    100000.000000 Angstroms

  Brenner et al 2002 potential to be used with explicit splines for P


********************************************************************************
*  Output for configuration   1                                                *
********************************************************************************


  Components of energy : 

--------------------------------------------------------------------------------
  Interatomic potentials     =           0.00000000 eV    
  Brenner potentials         =        -420.83932921 eV    
  Monopole - monopole (real) =           0.00000000 eV    
  Monopole - monopole (recip)=           0.00000000 eV    
  Monopole - monopole (total)=           0.00000000 eV    
--------------------------------------------------------------------------------
  Total lattice energy       =        -420.83932921 eV    
--------------------------------------------------------------------------------
  Total lattice energy       =          -40604.5622 kJ/(mole unit cells)
--------------------------------------------------------------------------------


  Number of variables =      189

  Maximum number of calculations  =          2000
  Maximum Hessian update interval =            10
  Maximum step size               =   1.000000000
  Maximum parameter tolerance     =   0.000010000
  Maximum function  tolerance     =   0.000010000
  Maximum gradient  tolerance     =   0.001000000
  Maximum gradient  component     =   0.010000000

  Maximum LM gradient tolerance   =   0.900000000
  Symmetry not applied to optimisation

  Limited Memory BFGS to be used of order   10

  BFGS hessian update to be used

  Lower half triangular hessian to be used

  Start of bulk optimisation :

  Cycle:      0 Energy:      -420.839329  Gnorm:      0.558488  CPU:    0.034
  Cycle:      1 Energy:      -420.953179  Gnorm:      0.481296  CPU:    0.079
  Cycle:      2 Energy:      -421.441653  Gnorm:      0.278005  CPU:    0.099
  Cycle:      3 Energy:      -421.590199  Gnorm:      0.197660  CPU:    0.112
  Cycle:      4 Energy:      -421.716263  Gnorm:      0.125213  CPU:    0.119
  Cycle:      5 Energy:      -421.762082  Gnorm:      0.122542  CPU:    0.144
  Cycle:      6 Energy:      -421.803946  Gnorm:      0.094317  CPU:    0.153
  Cycle:      7 Energy:      -421.846566  Gnorm:      0.123815  CPU:    0.179
  Cycle:      8 Energy:      -421.876547  Gnorm:      0.106597  CPU:    0.187
  Cycle:      9 Energy:      -421.895744  Gnorm:      0.065300  CPU:    0.193
  Cycle:     10 Energy:      -421.913291  Gnorm:      0.078090  CPU:    0.219
  Cycle:     11 Energy:      -421.930550  Gnorm:      0.075950  CPU:    0.227
  Cycle:     12 Energy:      -421.943459  Gnorm:      0.057675  CPU:    0.252
  Cycle:     13 Energy:      -421.956308  Gnorm:      0.043834  CPU:    0.262
  Cycle:     14 Energy:      -421.963286  Gnorm:      0.045424  CPU:    0.286
  Cycle:     15 Energy:      -421.971493  Gnorm:      0.052278  CPU:    0.310
  Cycle:     16 Energy:      -421.976763  Gnorm:      0.046904  CPU:    0.320
  Cycle:     17 Energy:      -421.980597  Gnorm:      0.035074  CPU:    0.326
  Cycle:     18 Energy:      -421.987680  Gnorm:      0.023423  CPU:    0.352
  Cycle:     19 Energy:      -421.991549  Gnorm:      0.028286  CPU:    0.361
  Cycle:     20 Energy:      -421.995793  Gnorm:      0.031182  CPU:    0.369
  Cycle:     21 Energy:      -421.998480  Gnorm:      0.028627  CPU:    0.394
  Cycle:     22 Energy:      -422.000465  Gnorm:      0.020082  CPU:    0.404
  Cycle:     23 Energy:      -422.002777  Gnorm:      0.018860  CPU:    0.429
  Cycle:     24 Energy:      -422.004774  Gnorm:      0.032633  CPU:    0.449
  Cycle:     25 Energy:      -422.006914  Gnorm:      0.018899  CPU:    0.463
  Cycle:     26 Energy:      -422.008718  Gnorm:      0.016439  CPU:    0.486
  Cycle:     27 Energy:      -422.010212  Gnorm:      0.025149  CPU:    0.498
  Cycle:     28 Energy:      -422.011905  Gnorm:      0.019212  CPU:    0.523
  Cycle:     29 Energy:      -422.013530  Gnorm:      0.017316  CPU:    0.532
  Cycle:     30 Energy:      -422.014603  Gnorm:      0.049840  CPU:    0.557
  Cycle:     31 Energy:      -422.016877  Gnorm:      0.017087  CPU:    0.566
  Cycle:     32 Energy:      -422.017799  Gnorm:      0.014509  CPU:    0.572
  Cycle:     33 Energy:      -422.019020  Gnorm:      0.022196  CPU:    0.599
  Cycle:     34 Energy:      -422.020257  Gnorm:      0.026462  CPU:    0.607
  Cycle:     35 Energy:      -422.021405  Gnorm:      0.013994  CPU:    0.631
  Cycle:     36 Energy:      -422.022564  Gnorm:      0.013373  CPU:    0.640
  Cycle:     37 Energy:      -422.023356  Gnorm:      0.014401  CPU:    0.665
  Cycle:     38 Energy:      -422.024072  Gnorm:      0.028456  CPU:    0.675
  Cycle:     39 Energy:      -422.024958  Gnorm:      0.013700  CPU:    0.681
  Cycle:     40 Energy:      -422.025281  Gnorm:      0.009733  CPU:    0.707
  Cycle:     41 Energy:      -422.025644  Gnorm:      0.007781  CPU:    0.716
  Cycle:     42 Energy:      -422.026279  Gnorm:      0.010341  CPU:    0.740
  Cycle:     43 Energy:      -422.026323  Gnorm:      0.023484  CPU:    0.750
  Cycle:     44 Energy:      -422.026889  Gnorm:      0.007716  CPU:    0.773
  Cycle:     45 Energy:      -422.027066  Gnorm:      0.005639  CPU:    0.784
  Cycle:     46 Energy:      -422.027333  Gnorm:      0.007432  CPU:    0.791
  Cycle:     47 Energy:      -422.027656  Gnorm:      0.009979  CPU:    0.816
  Cycle:     48 Energy:      -422.027902  Gnorm:      0.013433  CPU:    0.825
  Cycle:     49 Energy:      -422.028179  Gnorm:      0.006062  CPU:    0.848
  Cycle:     50 Energy:      -422.028380  Gnorm:      0.006856  CPU:    0.859
  Cycle:     51 Energy:      -422.028597  Gnorm:      0.007988  CPU:    0.866
  Cycle:     52 Energy:      -422.028849  Gnorm:      0.020390  CPU:    0.891
  Cycle:     53 Energy:      -422.029247  Gnorm:      0.007667  CPU:    0.900
  Cycle:     54 Energy:      -422.029419  Gnorm:      0.005515  CPU:    0.915
  Cycle:     55 Energy:      -422.029626  Gnorm:      0.007717  CPU:    0.932
  Cycle:     56 Energy:      -422.029724  Gnorm:      0.009235  CPU:    0.961
  Cycle:     57 Energy:      -422.029773  Gnorm:      0.014767  CPU:    0.970
  Cycle:     58 Energy:      -422.030054  Gnorm:      0.010907  CPU:    0.985
  Cycle:     59 Energy:      -422.030187  Gnorm:      0.005539  CPU:    1.003
  Cycle:     60 Energy:      -422.030254  Gnorm:      0.003679  CPU:    1.010
  Cycle:     61 Energy:      -422.030355  Gnorm:      0.004810  CPU:    1.034
  Cycle:     62 Energy:      -422.030533  Gnorm:      0.007497  CPU:    1.047
  Cycle:     63 Energy:      -422.030625  Gnorm:      0.005716  CPU:    1.075
  Cycle:     64 Energy:      -422.030693  Gnorm:      0.003323  CPU:    1.100
  Cycle:     65 Energy:      -422.030759  Gnorm:      0.003601  CPU:    1.110
  Cycle:     66 Energy:      -422.030828  Gnorm:      0.005950  CPU:    1.116
  Cycle:     67 Energy:      -422.030918  Gnorm:      0.004141  CPU:    1.143
  Cycle:     68 Energy:      -422.030999  Gnorm:      0.003076  CPU:    1.151
  Cycle:     69 Energy:      -422.031093  Gnorm:      0.003954  CPU:    1.175
  Cycle:     70 Energy:      -422.031144  Gnorm:      0.006677  CPU:    1.185
  Cycle:     71 Energy:      -422.031216  Gnorm:      0.003578  CPU:    1.191
  Cycle:     72 Energy:      -422.031276  Gnorm:      0.003297  CPU:    1.217
  Cycle:     73 Energy:      -422.031345  Gnorm:      0.003901  CPU:    1.226
  Cycle:     74 Energy:      -422.031415  Gnorm:      0.008441  CPU:    1.242
  Cycle:     75 Energy:      -422.031514  Gnorm:      0.004296  CPU:    1.258
  Cycle:     76 Energy:      -422.031579  Gnorm:      0.003340  CPU:    1.274
  Cycle:     77 Energy:      -422.031651  Gnorm:      0.004166  CPU:    1.292
  Cycle:     78 Energy:      -422.031676  Gnorm:      0.011504  CPU:    1.312
  Cycle:     79 Energy:      -422.031780  Gnorm:      0.004035  CPU:    1.327
  Cycle:     80 Energy:      -422.031819  Gnorm:      0.002488  CPU:    1.334
  Cycle:     81 Energy:      -422.031855  Gnorm:      0.003169  CPU:    1.356
  Cycle:     82 Energy:      -422.031914  Gnorm:      0.004530  CPU:    1.368
  Cycle:     83 Energy:      -422.031978  Gnorm:      0.005451  CPU:    1.388
  Cycle:     84 Energy:      -422.032034  Gnorm:      0.002813  CPU:    1.402
  Cycle:     85 Energy:      -422.032067  Gnorm:      0.002857  CPU:    1.410
  Cycle:     86 Energy:      -422.032108  Gnorm:      0.002891  CPU:    1.433
  Cycle:     87 Energy:      -422.032140  Gnorm:      0.007391  CPU:    1.444
  Cycle:     88 Energy:      -422.032198  Gnorm:      0.002630  CPU:    1.458
  Cycle:     89 Energy:      -422.032218  Gnorm:      0.002114  CPU:    1.477
  Cycle:     90 Energy:      -422.032254  Gnorm:      0.002355  CPU:    1.494
  Cycle:     91 Energy:      -422.032297  Gnorm:      0.003369  CPU:    1.512
  Cycle:     92 Energy:      -422.032322  Gnorm:      0.005572  CPU:    1.519
  Cycle:     93 Energy:      -422.032362  Gnorm:      0.001886  CPU:    1.541
  Cycle:     94 Energy:      -422.032378  Gnorm:      0.001860  CPU:    1.553
  Cycle:     95 Energy:      -422.032396  Gnorm:      0.002236  CPU:    1.566
  Cycle:     96 Energy:      -422.032411  Gnorm:      0.003106  CPU:    1.590
  Cycle:     97 Energy:      -422.032430  Gnorm:      0.001534  CPU:    1.616
  Cycle:     98 Energy:      -422.032441  Gnorm:      0.001296  CPU:    1.625
  Cycle:     99 Energy:      -422.032453  Gnorm:      0.001532  CPU:    1.632
  Cycle:    100 Energy:      -422.032460  Gnorm:      0.002231  CPU:    1.662
  Cycle:    101 Energy:      -422.032469  Gnorm:      0.001294  CPU:    1.685
  Cycle:    102 Energy:      -422.032477  Gnorm:      0.001012  CPU:    1.698
  Cycle:    103 Energy:      -422.032484  Gnorm:      0.001194  CPU:    1.705
  Cycle:    104 Energy:      -422.032488  Gnorm:      0.001315  CPU:    1.735
  Cycle:    105 Energy:      -422.032492  Gnorm:      0.000747  CPU:    1.747
  Cycle:    106 Energy:      -422.032495  Gnorm:      0.000647  CPU:    1.770
  Cycle:    107 Energy:      -422.032498  Gnorm:      0.001043  CPU:    1.791
  Cycle:    108 Energy:      -422.032500  Gnorm:      0.000762  CPU:    1.804
  Cycle:    109 Energy:      -422.032502  Gnorm:      0.000633  CPU:    1.811
  Cycle:    110 Energy:      -422.032504  Gnorm:      0.000637  CPU:    1.835
  Cycle:    111 Energy:      -422.032506  Gnorm:      0.001038  CPU:    1.845
  Cycle:    112 Energy:      -422.032508  Gnorm:      0.000718  CPU:    1.851
  Cycle:    113 Energy:      -422.032510  Gnorm:      0.000709  CPU:    1.877
  Cycle:    114 Energy:      -422.032511  Gnorm:      0.000798  CPU:    1.886
  Cycle:    115 Energy:      -422.032513  Gnorm:      0.000646  CPU:    1.897
  Cycle:    116 Energy:      -422.032516  Gnorm:      0.000942  CPU:    1.920
  Cycle:    117 Energy:      -422.032517  Gnorm:      0.001149  CPU:    1.931
  Cycle:    118 Energy:      -422.032518  Gnorm:      0.000564  CPU:    1.955
  Cycle:    119 Energy:      -422.032520  Gnorm:      0.000423  CPU:    1.967
  Cycle:    120 Energy:      -422.032522  Gnorm:      0.000666  CPU:    1.990
  Cycle:    121 Energy:      -422.032524  Gnorm:      0.000814  CPU:    2.016
  Cycle:    122 Energy:      -422.032526  Gnorm:      0.001207  CPU:    2.029
  Cycle:    123 Energy:      -422.032529  Gnorm:      0.000701  CPU:    2.051
  Cycle:    124 Energy:      -422.032531  Gnorm:      0.000560  CPU:    2.063
  Cycle:    125 Energy:      -422.032534  Gnorm:      0.001179  CPU:    2.086
  Cycle:    126 Energy:      -422.032536  Gnorm:      0.000856  CPU:    2.100
  Cycle:    127 Energy:      -422.032538  Gnorm:      0.000630  CPU:    2.124
  Cycle:    128 Energy:      -422.032540  Gnorm:      0.000717  CPU:    2.132
  Cycle:    129 Energy:      -422.032542  Gnorm:      0.000696  CPU:    2.157
  Cycle:    130 Energy:      -422.032543  Gnorm:      0.000555  CPU:    2.166
  Cycle:    131 Energy:      -422.032545  Gnorm:      0.001054  CPU:    2.191
  Cycle:    132 Energy:      -422.032546  Gnorm:      0.000632  CPU:    2.206
  Cycle:    133 Energy:      -422.032547  Gnorm:      0.000471  CPU:    2.226
  Cycle:    134 Energy:      -422.032548  Gnorm:      0.000452  CPU:    2.243
  Cycle:    135 Energy:      -422.032549  Gnorm:      0.000844  CPU:    2.261
  Cycle:    136 Energy:      -422.032550  Gnorm:      0.000424  CPU:    2.286
  Cycle:    137 Energy:      -422.032550  Gnorm:      0.000314  CPU:    2.295
  Cycle:    138 Energy:      -422.032551  Gnorm:      0.000345  CPU:    2.322
  Cycle:    139 Energy:      -422.032552  Gnorm:      0.000378  CPU:    2.331
  Cycle:    140 Energy:      -422.032552  Gnorm:      0.000502  CPU:    2.359
  Cycle:    141 Energy:      -422.032553  Gnorm:      0.000290  CPU:    2.369
  Cycle:    142 Energy:      -422.032553  Gnorm:      0.000354  CPU:    2.392
  Cycle:    143 Energy:      -422.032554  Gnorm:      0.000247  CPU:    2.403
  Cycle:    144 Energy:      -422.032554  Gnorm:      0.000215  CPU:    2.410
  Cycle:    145 Energy:      -422.032554  Gnorm:      0.000611  CPU:    2.435


  **** Optimisation achieved ****


  Final energy =    -422.03255443 eV
  Final Gnorm  =       0.00018991

  Components of energy : 

--------------------------------------------------------------------------------
  Interatomic potentials     =           0.00000000 eV    
  Brenner potentials         =        -422.03255443 eV    
  Monopole - monopole (real) =           0.00000000 eV    
  Monopole - monopole (recip)=           0.00000000 eV    
  Monopole - monopole (total)=           0.00000000 eV    
--------------------------------------------------------------------------------
  Total lattice energy       =        -422.03255443 eV    
--------------------------------------------------------------------------------
  Total lattice energy       =          -40719.6901 kJ/(mole unit cells)
--------------------------------------------------------------------------------

  Final fractional coordinates of atoms :

--------------------------------------------------------------------------------
   No.  Atomic        x           y          z          Radius
        Label       (Frac)      (Frac)     (Frac)       (Angs) 
--------------------------------------------------------------------------------
     1  C     c     0.476040    0.519880    0.065020    0.000000
     2  C     c     0.410564    0.738622    0.306319    0.000000
     3  C     c     0.290670    0.260339    0.910937    0.000000
     4  C     c     0.104785    0.008902    0.614802    0.000000
     5  C     c     0.960019    0.853717    0.881245    0.000000
     6  C     c     0.796282    0.475527    0.580993    0.000000
     7  C     c     0.615163    0.415026    0.679263    0.000000
     8  C     c     0.789808    0.713275    0.333051    0.000000
     9  C     c     0.884203    0.245735    0.326249    0.000000
    10  C     c     0.686776    0.159954    0.140695    0.000000
    11  C     c     0.871445    0.038266    0.359281    0.000000
    12  C     c     0.951086    0.931880    0.518903    0.000000
    13  C     c     0.516175    0.057862    0.149218    0.000000
    14  C     c     0.552178    0.979486    0.495812    0.000000
    15  C     c     0.469517    0.328908    0.001139    0.000000
    16  C     c     0.950522    0.350037    0.487024    0.000000
    17  C     c     0.160307    0.418343    0.830282    0.000000
    18  C     c     0.832914    0.732056    0.814653    0.000000
    19  C     c     0.914476    0.947757    0.036022    0.000000
    20  C     c     0.144623    0.914799    0.794128    0.000000
    21  C     c     0.872470    0.646066    0.655932    0.000000
    22  C     c     0.891225    0.123144    0.726722    0.000000
    23  C     c     0.500764    0.600265    0.413174    0.000000
    24  C     c     0.652733    0.703526    0.882518    0.000000
    25  C     c     0.641151    0.587024    0.027625    0.000000
    26  C     c     0.791037    0.973209    0.719529    0.000000
    27  C     c     0.471447    0.462976    0.576588    0.000000
    28  C     c     0.359576    0.640752    0.138742    0.000000
    29  C     c     0.592065    0.951956    0.690493    0.000000
    30  C     c     0.715807    0.339481    0.234075    0.000000
    31  C     c     0.008496    0.194615    0.155456    0.000000
    32  C     c     0.970884    0.394922    0.893580    0.000000
    33  C     c     0.505797    0.786284    0.783401    0.000000
    34  C     c     0.848605    0.135588    0.032904    0.000000
    35  C     c     0.354720    0.175149    0.711088    0.000000
    36  C     c     0.114725    0.477235    0.446224    0.000000
    37  C     c     0.183545    0.162716    0.081632    0.000000
    38  C     c     0.281982    0.398346    0.516709    0.000000
    39  C     c     0.103088    0.672450    0.419602    0.000000
    40  C     c     0.933953    0.498027    0.037401    0.000000
    41  C     c     0.834496    0.245001    0.870261    0.000000
    42  C     c     0.373441    0.212881    0.168382    0.000000
    43  C     c     0.395205    0.115977    0.507169    0.000000
    44  C     c     0.981281    0.711963    0.265627    0.000000
    45  C     c     0.395025    0.276524    0.366937    0.000000
    46  C     c     0.556312    0.398552    0.338259    0.000000
    47  C     c     0.309640    0.763203    0.781670    0.000000
    48  C     c     0.930147    0.899505    0.212117    0.000000
    49  C     c     0.768029    0.485176    0.108309    0.000000
    50  C     c     0.254929    0.803921    0.413745    0.000000
    51  C     c     0.707222    0.551077    0.407091    0.000000
    52  C     c     0.956653    0.748013    0.532472    0.000000
    53  C     c     0.231692    0.604751    0.861561    0.000000
    54  C     c     0.042084    0.617863    0.111740    0.000000
    55  C     c     0.626270    0.285913    0.845599    0.000000
    56  C     c     0.439289    0.011154    0.968449    0.000000
    57  C     c     0.520645    0.911979    0.285963    0.000000
    58  C     c     0.205677    0.645266    0.044001    0.000000
    59  C     c     0.036449    0.209598    0.612542    0.000000
    60  C     c     0.257402    0.961907    0.492270    0.000000
    61  C     c     0.715428    0.894503    0.368878    0.000000
    62  C     c     0.243175    0.005798    0.953727    0.000000
    63  C     c     0.517529    0.099748    0.808340    0.000000
    64  C     c     0.200376    0.302887    0.669453    0.000000
--------------------------------------------------------------------------------

  Final internal derivatives :

--------------------------------------------------------------------------------
   No.  Atomic          a             b             c           Radius
        Label          (eV)          (eV)          (eV)        (eV/Angs)
--------------------------------------------------------------------------------
      1 C     c       0.000000      0.000000      0.000000      0.000000
      2 C     c      -0.001594     -0.001415      0.001452      0.000000
      3 C     c      -0.000333      0.003503     -0.007816      0.000000
      4 C     c       0.001072      0.002665     -0.000343      0.000000
      5 C     c       0.000875      0.000678      0.004487      0.000000
      6 C     c       0.000771      0.000484      0.000294      0.000000
      7 C     c      -0.001303     -0.000549     -0.000107      0.000000
      8 C     c       0.004060      0.001958      0.004669      0.000000
      9 C     c       0.001089      0.000207     -0.001045      0.000000
     10 C     c       0.001758     -0.001180      0.000769      0.000000
     11 C     c      -0.001355      0.001968      0.006191      0.000000
     12 C     c       0.004488      0.000847      0.003086      0.000000
     13 C     c      -0.000056      0.000156      0.002183      0.000000
     14 C     c      -0.001082     -0.003690      0.002105      0.000000
     15 C     c      -0.006544     -0.001212      0.005317      0.000000
     16 C     c       0.001453      0.003127     -0.001871      0.000000
     17 C     c       0.001463      0.000160     -0.002759      0.000000
     18 C     c       0.001447     -0.003916      0.000955      0.000000
     19 C     c       0.000092      0.002393      0.002006      0.000000
     20 C     c       0.000611     -0.002442      0.000451      0.000000
     21 C     c      -0.001101      0.001747     -0.002992      0.000000
     22 C     c      -0.001853     -0.002190      0.001273      0.000000
     23 C     c      -0.000486     -0.001386     -0.001527      0.000000
     24 C     c      -0.000442     -0.001713      0.003035      0.000000
     25 C     c      -0.000463     -0.001314      0.002950      0.000000
     26 C     c      -0.001165      0.000056     -0.000114      0.000000
     27 C     c       0.002478     -0.002717     -0.008861      0.000000
     28 C     c      -0.000468      0.003539     -0.001799      0.000000
     29 C     c       0.000164      0.000798      0.001234      0.000000
     30 C     c       0.000209     -0.000072     -0.002496      0.000000
     31 C     c      -0.002585      0.002840     -0.000054      0.000000
     32 C     c      -0.003001      0.001722     -0.005894      0.000000
     33 C     c       0.001522      0.002888     -0.001226      0.000000
     34 C     c      -0.002392     -0.001818     -0.003023      0.000000
     35 C     c      -0.000233      0.001344      0.000186      0.000000
     36 C     c      -0.003774     -0.003747     -0.001616      0.000000
     37 C     c      -0.003083     -0.000562     -0.002421      0.000000
     38 C     c      -0.000461     -0.000277      0.000970      0.000000
     39 C     c      -0.002274     -0.001242     -0.000692      0.000000
     40 C     c       0.000494     -0.004677      0.002111      0.000000
     41 C     c      -0.002283     -0.002131     -0.001693      0.000000
     42 C     c       0.004048     -0.000888      0.001838      0.000000
     43 C     c       0.001425     -0.006389     -0.000298      0.000000
     44 C     c       0.001197      0.000530     -0.003126      0.000000
     45 C     c      -0.001399      0.004361     -0.003289      0.000000
     46 C     c      -0.003095     -0.000516      0.006121      0.000000
     47 C     c       0.003216      0.000080     -0.004025      0.000000
     48 C     c      -0.004549     -0.003122      0.001142      0.000000
     49 C     c      -0.000993     -0.001894      0.000358      0.000000
     50 C     c      -0.001534     -0.002420      0.000858      0.000000
     51 C     c      -0.003559     -0.003978      0.002772      0.000000
     52 C     c      -0.004749      0.000716     -0.006699      0.000000
     53 C     c      -0.002487     -0.001633     -0.000425      0.000000
     54 C     c       0.000022      0.000161     -0.003172      0.000000
     55 C     c       0.005765     -0.001852      0.000657      0.000000
     56 C     c      -0.003642      0.000247     -0.000717      0.000000
     57 C     c       0.000608     -0.000121     -0.002867      0.000000
     58 C     c      -0.000052     -0.002776     -0.001365      0.000000
     59 C     c      -0.002422     -0.003343     -0.000913      0.000000
     60 C     c      -0.002691     -0.002440      0.000581      0.000000
     61 C     c      -0.000299     -0.000728      0.003878      0.000000
     62 C     c      -0.002193      0.000547     -0.003738      0.000000
     63 C     c       0.000001     -0.000824     -0.003436      0.000000
     64 C     c       0.001081     -0.003354      0.005433      0.000000
--------------------------------------------------------------------------------
  Maximum abs         0.006544      0.006389      0.008861      0.000000
--------------------------------------------------------------------------------


  Time to end of optimisation =       2.4453 seconds


  Peak dynamic memory used =       2.01 MB 


  Timing analysis for GULP :

--------------------------------------------------------------------------------
  Task / Subroutine                                          Time (Seconds)
--------------------------------------------------------------------------------
  Calculation of Brenner energy and derivatives                   2.3990
--------------------------------------------------------------------------------
  Total CPU time                                                  2.4454
--------------------------------------------------------------------------------


  CIF file written as opti_0.9850.cif


  Job Finished at 21:51.08 30th July       2020                               

