********************************************************************************
*                       GENERAL UTILITY LATTICE PROGRAM                        *
*                                 Julian Gale                                  *
*                       Curtin Institute for Computation                       *
*                    School of Molecular and Life Sciences                     *
*                    Curtin University, Western Australia                      *
********************************************************************************
* Version = 5.2.0 * Last modified =  17th December 2019                        *
********************************************************************************
*  optimise     - perform optimisation run                                     *
*  conv         - constant volume calculation                                  *
*  isotropic    - only isotropic cell expansion to be allowed                  *
*  conjugate    - use conjugate gradients minimiser                            *
********************************************************************************
* ASE calculation                                                              *
********************************************************************************


  Job Started  at 16:48.20 11th August     2020                               

  Number of CPUs =     1


  Total number of configurations input =      1

********************************************************************************
*  Input for Configuration =   1                                               *
********************************************************************************

  Formula = C64                                                         

  Number of irreducible atoms/shells =      64


  Total number atoms/shells =      64

  Dimensionality = 3               :  Bulk   



  Cartesian lattice vectors (Angstroms) :

        7.608880    0.000000    0.000000
        0.000000    7.608880    0.000000
        0.000000    0.000000    7.608880

  Cell parameters (Angstroms/Degrees):

  a =       7.6089    alpha =  90.0000
  b =       7.6089    beta  =  90.0000
  c =       7.6089    gamma =  90.0000

  Initial cell volume =         440.516525 Angs**3

  Temperature of configuration =   0.00     K 

  Pressure of configuration =         0.000 GPa 

  Fractional coordinates of asymmetric unit :

--------------------------------------------------------------------------------
   No.  Atomic       x           y          z         Charge      Occupancy
        Label      (Frac)      (Frac)     (Frac)        (e)         (Frac)  
--------------------------------------------------------------------------------
      1 C     c    0.025100    0.587150    0.365320     0.00000    1.000000    
      2 C     c    0.261960 *  0.102350 *  0.107880 *   0.00000    1.000000    
      3 C     c    0.100080 *  0.438460 *  0.267700 *   0.00000    1.000000    
      4 C     c    0.878960 *  0.966820 *  0.452800 *   0.00000    1.000000    
      5 C     c    0.476970 *  0.917400 *  0.988740 *   0.00000    1.000000    
      6 C     c    0.786990 *  0.447150 *  0.220140 *   0.00000    1.000000    
      7 C     c    0.923040 *  0.637520 *  0.717050 *   0.00000    1.000000    
      8 C     c    0.810170 *  0.554560 *  0.590260 *   0.00000    1.000000    
      9 C     c    0.131790 *  0.380040 *  0.638710 *   0.00000    1.000000    
     10 C     c    0.404270 *  0.764550 *  0.117610 *   0.00000    1.000000    
     11 C     c    0.889700 *  0.256980 *  0.746610 *   0.00000    1.000000    
     12 C     c    0.569910 *  0.900620 *  0.557400 *   0.00000    1.000000    
     13 C     c    0.425650 *  0.240870 *  0.632440 *   0.00000    1.000000    
     14 C     c    0.200020 *  0.983730 *  0.798590 *   0.00000    1.000000    
     15 C     c    0.523060 *  0.608540 *  0.406760 *   0.00000    1.000000    
     16 C     c    0.987720 *  0.938200 *  0.121300 *   0.00000    1.000000    
     17 C     c    0.134680 *  0.821550 *  0.858210 *   0.00000    1.000000    
     18 C     c    0.347750 *  0.690110 *  0.662490 *   0.00000    1.000000    
     19 C     c    0.738190 *  0.384180 *  0.683430 *   0.00000    1.000000    
     20 C     c    0.046450 *  0.258110 *  0.266300 *   0.00000    1.000000    
     21 C     c    0.936080 *  0.173340 *  0.419850 *   0.00000    1.000000    
     22 C     c    0.843300 *  0.615880 *  0.414970 *   0.00000    1.000000    
     23 C     c    0.478470 *  0.818970 *  0.689890 *   0.00000    1.000000    
     24 C     c    0.794120 *  0.296780 *  0.327440 *   0.00000    1.000000    
     25 C     c    0.669440 *  0.161030 *  0.017330 *   0.00000    1.000000    
     26 C     c    0.520340 *  0.604650 *  0.088340 *   0.00000    1.000000    
     27 C     c    0.606080 *  0.280540 *  0.571440 *   0.00000    1.000000    
     28 C     c    0.633890 *  0.989520 *  0.119020 *   0.00000    1.000000    
     29 C     c    0.479160 *  0.916090 *  0.251290 *   0.00000    1.000000    
     30 C     c    0.339390 *  0.056680 *  0.923070 *   0.00000    1.000000    
     31 C     c    0.810280 *  0.113020 *  0.884120 *   0.00000    1.000000    
     32 C     c    0.867950 *  0.767490 *  0.838090 *   0.00000    1.000000    
     33 C     c    0.307470 *  0.395320 *  0.575810 *   0.00000    1.000000    
     34 C     c    0.226620 *  0.687030 *  0.123410 *   0.00000    1.000000    
     35 C     c    0.071610 *  0.510040 *  0.779400 *   0.00000    1.000000    
     36 C     c    0.326190 *  0.102150 *  0.509580 *   0.00000    1.000000    
     37 C     c    0.121970 *  0.741100 *  0.423810 *   0.00000    1.000000    
     38 C     c    0.542650 *  0.314790 *  0.957100 *   0.00000    1.000000    
     39 C     c    0.063420 *  0.131370 *  0.109250 *   0.00000    1.000000    
     40 C     c    0.769650 *  0.942180 *  0.796810 *   0.00000    1.000000    
     41 C     c    0.392750 *  0.558230 *  0.534200 *   0.00000    1.000000    
     42 C     c    0.068180 *  0.896530 *  0.498720 *   0.00000    1.000000    
     43 C     c    0.001700 *  0.428840 *  0.954850 *   0.00000    1.000000    
     44 C     c    0.238470 *  0.500650 *  0.156150 *   0.00000    1.000000    
     45 C     c    0.195650 *  0.672080 *  0.768160 *   0.00000    1.000000    
     46 C     c    0.892950 *  0.519810 *  0.081840 *   0.00000    1.000000    
     47 C     c    0.799980 *  0.863030 *  0.155410 *   0.00000    1.000000    
     48 C     c    0.985830 *  0.222010 *  0.949250 *   0.00000    1.000000    
     49 C     c    0.775600 *  0.805360 *  0.350140 *   0.00000    1.000000    
     50 C     c    0.821570 *  0.700470 *  0.025360 *   0.00000    1.000000    
     51 C     c    0.158980 *  0.041530 *  0.607950 *   0.00000    1.000000    
     52 C     c    0.476040 *  0.263670 *  0.276630 *   0.00000    1.000000    
     53 C     c    0.434680 *  0.399100 *  0.122780 *   0.00000    1.000000    
     54 C     c    0.365660 *  0.086630 *  0.294640 *   0.00000    1.000000    
     55 C     c    0.624160 *  0.266270 *  0.391710 *   0.00000    1.000000    
     56 C     c    0.422290 *  0.211340 *  0.832230 *   0.00000    1.000000    
     57 C     c    0.643820 *  0.455720 *  0.850330 *   0.00000    1.000000    
     58 C     c    0.737120 *  0.967710 *  0.602660 *   0.00000    1.000000    
     59 C     c    0.099210 *  0.802470 *  0.043610 *   0.00000    1.000000    
     60 C     c    0.617730 *  0.536110 *  0.254430 *   0.00000    1.000000    
     61 C     c    0.572990 *  0.809180 *  0.390000 *   0.00000    1.000000    
     62 C     c    0.027000 *  0.208410 *  0.602340 *   0.00000    1.000000    
     63 C     c    0.640770 *  0.641500 *  0.932270 *   0.00000    1.000000    
     64 C     c    0.588560 *  0.824650 *  0.852350 *   0.00000    1.000000    
--------------------------------------------------------------------------------


  Constraints : 

--------------------------------------------------------------------------------
  Constraint no.      Unconstrained     Constrained    Coefficient    Offset
                         Variable         Variable
--------------------------------------------------------------------------------
           1              Strain 1        Strain 2       1.00000      0.0000
           2              Strain 1        Strain 3       1.00000      0.0000
--------------------------------------------------------------------------------


********************************************************************************
*  General input information                                                   *
********************************************************************************

  Species output for all configurations : 

--------------------------------------------------------------------------------
  Species    Type    Atomic    Atomic    Charge       Radii (Angs)     Library
                     Number     Mass       (e)     Cova   Ionic  VDW   Symbol
--------------------------------------------------------------------------------
    C        Core        6      12.01   0.000000   0.770  0.000  1.530          
--------------------------------------------------------------------------------


  Lattice summation method               =    Ewald          (3-D)
                                         =    Parry          (2-D)
                                         =    Saunders et al (1-D)
  Accuracy factor for lattice sums       =   12.000


  Analytic derivatives to be used

  Time limit = Infinity

  Maximum range for interatomic potentials =    100000.000000 Angstroms

  Brenner et al 2002 potential to be used with explicit splines for P


********************************************************************************
*  Output for configuration   1                                                *
********************************************************************************


  Components of energy : 

--------------------------------------------------------------------------------
  Interatomic potentials     =           0.00000000 eV    
  Brenner potentials         =        -428.35529545 eV    
  Monopole - monopole (real) =           0.00000000 eV    
  Monopole - monopole (recip)=           0.00000000 eV    
  Monopole - monopole (total)=           0.00000000 eV    
--------------------------------------------------------------------------------
  Total lattice energy       =        -428.35529545 eV    
--------------------------------------------------------------------------------
  Total lattice energy       =          -41329.7380 kJ/(mole unit cells)
--------------------------------------------------------------------------------


  Number of variables =      189

  Maximum number of calculations  =          2000
  Maximum Hessian update interval =            10
  Maximum step size               =   1.000000000
  Maximum parameter tolerance     =   0.000010000
  Maximum function  tolerance     =   0.000010000
  Maximum gradient  tolerance     =   0.001000000
  Maximum gradient  component     =   0.010000000

  Symmetry not applied to optimisation

  Conjugate gradient optimiser to be used

  Lower half triangular hessian to be used

  Start of bulk optimisation :

  Cycle:      0 Energy:      -428.355295  Gnorm:      0.109768  CPU:    0.015
  Cycle:      1 Energy:      -428.368730  Gnorm:      0.046311  CPU:    0.041
  Cycle:      2 Energy:      -428.375072  Gnorm:      0.041255  CPU:    0.051
  Cycle:      3 Energy:      -428.378474  Gnorm:      0.040911  CPU:    0.075
  Cycle:      4 Energy:      -428.381776  Gnorm:      0.028510  CPU:    0.084
  Cycle:      5 Energy:      -428.383802  Gnorm:      0.025738  CPU:    0.109
  Cycle:      6 Energy:      -428.385980  Gnorm:      0.026857  CPU:    0.120
  Cycle:      7 Energy:      -428.387791  Gnorm:      0.018202  CPU:    0.142
  Cycle:      8 Energy:      -428.388803  Gnorm:      0.018208  CPU:    0.163
  Cycle:      9 Energy:      -428.389546  Gnorm:      0.015409  CPU:    0.183
  Cycle:     10 Energy:      -428.389849  Gnorm:      0.007703  CPU:    0.190
  Cycle:     11 Energy:      -428.390093  Gnorm:      0.009476  CPU:    0.217
  Cycle:     12 Energy:      -428.390379  Gnorm:      0.009441  CPU:    0.240
  Cycle:     13 Energy:      -428.390710  Gnorm:      0.009288  CPU:    0.250
  Cycle:     14 Energy:      -428.390866  Gnorm:      0.005682  CPU:    0.273
  Cycle:     15 Energy:      -428.391107  Gnorm:      0.006352  CPU:    0.282
  Cycle:     16 Energy:      -428.391230  Gnorm:      0.006517  CPU:    0.306
  Cycle:     17 Energy:      -428.391353  Gnorm:      0.005237  CPU:    0.314
  Cycle:     18 Energy:      -428.391428  Gnorm:      0.004712  CPU:    0.337
  Cycle:     19 Energy:      -428.391486  Gnorm:      0.003517  CPU:    0.346
  Cycle:     20 Energy:      -428.391505  Gnorm:      0.002577  CPU:    0.356
  Cycle:     21 Energy:      -428.391531  Gnorm:      0.002210  CPU:    0.378
  Cycle:     22 Energy:      -428.391554  Gnorm:      0.003201  CPU:    0.385
  Cycle:     23 Energy:      -428.391577  Gnorm:      0.002186  CPU:    0.408
  Cycle:     24 Energy:      -428.391592  Gnorm:      0.001801  CPU:    0.417
  Cycle:     25 Energy:      -428.391609  Gnorm:      0.002420  CPU:    0.440
  Cycle:     26 Energy:      -428.391623  Gnorm:      0.002526  CPU:    0.449
  Cycle:     27 Energy:      -428.391632  Gnorm:      0.001556  CPU:    0.470
  Cycle:     28 Energy:      -428.391646  Gnorm:      0.001715  CPU:    0.482
  Cycle:     29 Energy:      -428.391650  Gnorm:      0.001367  CPU:    0.506
  Cycle:     30 Energy:      -428.391653  Gnorm:      0.001005  CPU:    0.515
  Cycle:     31 Energy:      -428.391659  Gnorm:      0.001516  CPU:    0.538
  Cycle:     32 Energy:      -428.391662  Gnorm:      0.002218  CPU:    0.547
  Cycle:     33 Energy:      -428.391668  Gnorm:      0.001430  CPU:    0.560
  Cycle:     34 Energy:      -428.391677  Gnorm:      0.001630  CPU:    0.579
  Cycle:     35 Energy:      -428.391681  Gnorm:      0.001082  CPU:    0.586
  Cycle:     36 Energy:      -428.391685  Gnorm:      0.001401  CPU:    0.613
  Cycle:     37 Energy:      -428.391690  Gnorm:      0.001104  CPU:    0.621
  Cycle:     38 Energy:      -428.391703  Gnorm:      0.002159  CPU:    0.647
  Cycle:     39 Energy:      -428.391713  Gnorm:      0.002507  CPU:    0.655
  Cycle:     40 Energy:      -428.391725  Gnorm:      0.001465  CPU:    0.679
  Cycle:     41 Energy:      -428.391728  Gnorm:      0.000615  CPU:    0.687
  Cycle:     42 Energy:      -428.391729  Gnorm:      0.000521  CPU:    0.701
  Cycle:     43 Energy:      -428.391729  Gnorm:      0.000487  CPU:    0.719
  Cycle:     44 Energy:      -428.391730  Gnorm:      0.000472  CPU:    0.731
  Cycle:     45 Energy:      -428.391730  Gnorm:      0.000465  CPU:    0.750
  Cycle:     46 Energy:      -428.391731  Gnorm:      0.000460  CPU:    0.774
  Cycle:     47 Energy:      -428.391732  Gnorm:      0.000455  CPU:    0.783
  Cycle:     48 Energy:      -428.391732  Gnorm:      0.000452  CPU:    0.806
  Cycle:     49 Energy:      -428.391733  Gnorm:      0.000450  CPU:    0.833
  Cycle:     50 Energy:      -428.391734  Gnorm:      0.000449  CPU:    0.843
  Cycle:     51 Energy:      -428.391734  Gnorm:      0.000448  CPU:    0.860
  Cycle:     52 Energy:      -428.391735  Gnorm:      0.000447  CPU:    0.877
  Cycle:     53 Energy:      -428.391735  Gnorm:      0.000446  CPU:    0.890
  Cycle:     54 Energy:      -428.391770  Gnorm:      0.000407  CPU:    0.938
  Cycle:     55 Energy:      -428.391778  Gnorm:      0.001035  CPU:    0.948
  Cycle:     56 Energy:      -428.391800  Gnorm:      0.002566  CPU:    0.975
  Cycle:     57 Energy:      -428.391808  Gnorm:      0.001141  CPU:    0.992
  Cycle:     58 Energy:      -428.391812  Gnorm:      0.001358  CPU:    1.013
  Cycle:     59 Energy:      -428.391819  Gnorm:      0.000448  CPU:    1.024
  Cycle:     60 Energy:      -428.391820  Gnorm:      0.000816  CPU:    1.047
  Cycle:     61 Energy:      -428.391821  Gnorm:      0.000853  CPU:    1.055
  Cycle:     62 Energy:      -428.391823  Gnorm:      0.000989  CPU:    1.078
  Cycle:     63 Energy:      -428.391823  Gnorm:      0.000959  CPU:    1.087
  Cycle:     64 Energy:      -428.391824  Gnorm:      0.000758  CPU:    1.112
  Cycle:     65 Energy:      -428.391824  Gnorm:      0.000652  CPU:    1.120
  Cycle:     66 Energy:      -428.391825  Gnorm:      0.000609  CPU:    1.143
  Cycle:     67 Energy:      -428.391825  Gnorm:      0.000568  CPU:    1.152
  Cycle:     68 Energy:      -428.391825  Gnorm:      0.000533  CPU:    1.163
  Cycle:     69 Energy:      -428.391825  Gnorm:      0.000522  CPU:    1.183
  Cycle:     70 Energy:      -428.391825  Gnorm:      0.000525  CPU:    1.201
  Cycle:     71 Energy:      -428.391826  Gnorm:      0.000381  CPU:    1.231
  Cycle:     72 Energy:      -428.391827  Gnorm:      0.000472  CPU:    1.246
  Cycle:     73 Energy:      -428.391828  Gnorm:      0.000621  CPU:    1.269
  Cycle:     74 Energy:      -428.391833  Gnorm:      0.001357  CPU:    1.280
  Cycle:     75 Energy:      -428.391848  Gnorm:      0.002619  CPU:    1.306
  Cycle:     76 Energy:      -428.391859  Gnorm:      0.001204  CPU:    1.314
  Cycle:     77 Energy:      -428.391862  Gnorm:      0.000789  CPU:    1.337
  Cycle:     78 Energy:      -428.391864  Gnorm:      0.000501  CPU:    1.347
  Cycle:     79 Energy:      -428.391864  Gnorm:      0.000289  CPU:    1.358
  Cycle:     80 Energy:      -428.391864  Gnorm:      0.000282  CPU:    1.378


  **** Optimisation achieved ****


  Final energy =    -428.39186429 eV
  Final Gnorm  =       0.00028199

  Components of energy : 

--------------------------------------------------------------------------------
  Interatomic potentials     =           0.00000000 eV    
  Brenner potentials         =        -428.39186429 eV    
  Monopole - monopole (real) =           0.00000000 eV    
  Monopole - monopole (recip)=           0.00000000 eV    
  Monopole - monopole (total)=           0.00000000 eV    
--------------------------------------------------------------------------------
  Total lattice energy       =        -428.39186429 eV    
--------------------------------------------------------------------------------
  Total lattice energy       =          -41333.2663 kJ/(mole unit cells)
--------------------------------------------------------------------------------

  Final fractional coordinates of atoms :

--------------------------------------------------------------------------------
   No.  Atomic        x           y          z          Radius
        Label       (Frac)      (Frac)     (Frac)       (Angs) 
--------------------------------------------------------------------------------
     1  C     c     0.025100    0.587150    0.365320    0.000000
     2  C     c     0.261313    0.102256    0.107226    0.000000
     3  C     c     0.099994    0.439080    0.267319    0.000000
     4  C     c     0.879143    0.967122    0.452686    0.000000
     5  C     c     0.477442    0.916606    0.988973    0.000000
     6  C     c     0.786408    0.447819    0.220894    0.000000
     7  C     c     0.921210    0.635781    0.717398    0.000000
     8  C     c     0.810294    0.552883    0.589759    0.000000
     9  C     c     0.132269    0.380287    0.639357    0.000000
    10  C     c     0.405040    0.764048    0.117591    0.000000
    11  C     c     0.889068    0.255639    0.746242    0.000000
    12  C     c     0.571299    0.898096    0.557211    0.000000
    13  C     c     0.425518    0.240853    0.632200    0.000000
    14  C     c     0.201356    0.982893    0.798036    0.000000
    15  C     c     0.522366    0.608106    0.406415    0.000000
    16  C     c     0.988330    0.937822    0.120233    0.000000
    17  C     c     0.136854    0.821044    0.858248    0.000000
    18  C     c     0.348902    0.689151    0.662956    0.000000
    19  C     c     0.737786    0.383191    0.683264    0.000000
    20  C     c     0.044965    0.259231    0.265465    0.000000
    21  C     c     0.936139    0.174086    0.419957    0.000000
    22  C     c     0.843613    0.615164    0.415110    0.000000
    23  C     c     0.479845    0.817178    0.689490    0.000000
    24  C     c     0.794199    0.297955    0.328252    0.000000
    25  C     c     0.668966    0.159405    0.015935    0.000000
    26  C     c     0.520337    0.604212    0.088524    0.000000
    27  C     c     0.605615    0.280533    0.571175    0.000000
    28  C     c     0.634744    0.988339    0.118322    0.000000
    29  C     c     0.480261    0.915869    0.250434    0.000000
    30  C     c     0.339874    0.056095    0.923073    0.000000
    31  C     c     0.809795    0.111823    0.883107    0.000000
    32  C     c     0.865080    0.765234    0.837673    0.000000
    33  C     c     0.307646    0.395422    0.576778    0.000000
    34  C     c     0.227564    0.687172    0.123524    0.000000
    35  C     c     0.071432    0.510978    0.779194    0.000000
    36  C     c     0.326010    0.102779    0.508900    0.000000
    37  C     c     0.120355    0.741575    0.423911    0.000000
    38  C     c     0.542782    0.314099    0.956783    0.000000
    39  C     c     0.062762    0.132060    0.108612    0.000000
    40  C     c     0.769493    0.941024    0.796292    0.000000
    41  C     c     0.392911    0.557781    0.534498    0.000000
    42  C     c     0.068006    0.897108    0.498247    0.000000
    43  C     c     0.999965    0.429018    0.954519    0.000000
    44  C     c     0.239124    0.501138    0.157047    0.000000
    45  C     c     0.197255    0.671382    0.768812    0.000000
    46  C     c     0.891436    0.519305    0.081682    0.000000
    47  C     c     0.801035    0.862002    0.154556    0.000000
    48  C     c     0.984219    0.222405    0.948557    0.000000
    49  C     c     0.776036    0.804967    0.349613    0.000000
    50  C     c     0.820466    0.699566    0.025252    0.000000
    51  C     c     0.159193    0.041576    0.607551    0.000000
    52  C     c     0.477141    0.263508    0.276342    0.000000
    53  C     c     0.435224    0.399434    0.122872    0.000000
    54  C     c     0.366682    0.086582    0.292834    0.000000
    55  C     c     0.624350    0.266668    0.391925    0.000000
    56  C     c     0.422708    0.210431    0.832004    0.000000
    57  C     c     0.643820    0.454878    0.850184    0.000000
    58  C     c     0.737645    0.965603    0.602366    0.000000
    59  C     c     0.100926    0.802801    0.043319    0.000000
    60  C     c     0.617084    0.535928    0.254379    0.000000
    61  C     c     0.573517    0.808284    0.389269    0.000000
    62  C     c     0.027138    0.209216    0.602704    0.000000
    63  C     c     0.640109    0.640296    0.932426    0.000000
    64  C     c     0.588390    0.823527    0.852463    0.000000
--------------------------------------------------------------------------------

  Final internal derivatives :

--------------------------------------------------------------------------------
   No.  Atomic          a             b             c           Radius
        Label          (eV)          (eV)          (eV)        (eV/Angs)
--------------------------------------------------------------------------------
      1 C     c       0.000000      0.000000      0.000000      0.000000
      2 C     c       0.000332      0.004131      0.002948      0.000000
      3 C     c      -0.001697      0.005934     -0.003727      0.000000
      4 C     c      -0.002764      0.003770      0.001801      0.000000
      5 C     c      -0.005702      0.006046      0.004687      0.000000
      6 C     c      -0.003729      0.001974      0.000375      0.000000
      7 C     c       0.001300      0.006764      0.004215      0.000000
      8 C     c      -0.001119      0.000683      0.007544      0.000000
      9 C     c      -0.004651      0.004884      0.003206      0.000000
     10 C     c       0.003027      0.004575      0.000146      0.000000
     11 C     c       0.000198      0.003462      0.004390      0.000000
     12 C     c       0.002485      0.002368      0.003970      0.000000
     13 C     c       0.000288      0.007614     -0.000623      0.000000
     14 C     c       0.000337      0.002379      0.001479      0.000000
     15 C     c       0.000821      0.006895      0.004641      0.000000
     16 C     c       0.002782      0.002843      0.002391      0.000000
     17 C     c       0.000842      0.006129     -0.002040      0.000000
     18 C     c       0.002081      0.011064      0.007361      0.000000
     19 C     c       0.000846      0.007654      0.004429      0.000000
     20 C     c       0.000895      0.002157      0.004608      0.000000
     21 C     c       0.004130      0.003605      0.003670      0.000000
     22 C     c       0.001568      0.002060     -0.001053      0.000000
     23 C     c      -0.001697      0.002041      0.005965      0.000000
     24 C     c       0.001836      0.004286     -0.002450      0.000000
     25 C     c      -0.005760      0.003591      0.007069      0.000000
     26 C     c       0.002657      0.001462      0.001046      0.000000
     27 C     c      -0.003978      0.004818      0.005434      0.000000
     28 C     c       0.004244      0.005009      0.001441      0.000000
     29 C     c      -0.001989      0.005137      0.005107      0.000000
     30 C     c      -0.001246      0.004484      0.002934      0.000000
     31 C     c       0.007750      0.008356     -0.005500      0.000000
     32 C     c       0.003462      0.004198     -0.001045      0.000000
     33 C     c       0.001524      0.002797      0.003778      0.000000
     34 C     c       0.000988      0.001226      0.004235      0.000000
     35 C     c       0.001124     -0.001602      0.000473      0.000000
     36 C     c       0.000396      0.003500     -0.001364      0.000000
     37 C     c       0.008379      0.005310      0.001162      0.000000
     38 C     c      -0.000659      0.007204      0.001323      0.000000
     39 C     c      -0.000741      0.005489      0.002158      0.000000
     40 C     c      -0.003986     -0.000065      0.002765      0.000000
     41 C     c       0.004125      0.007453      0.000503      0.000000
     42 C     c      -0.000851      0.004509      0.006098      0.000000
     43 C     c      -0.001013      0.008436      0.001600      0.000000
     44 C     c      -0.000098      0.003178      0.004183      0.000000
     45 C     c      -0.000214      0.002485      0.000440      0.000000
     46 C     c      -0.000494      0.007854      0.003357      0.000000
     47 C     c      -0.001160      0.004395      0.002191      0.000000
     48 C     c       0.003153      0.002016     -0.000658      0.000000
     49 C     c       0.001711      0.001671      0.002844      0.000000
     50 C     c      -0.000603      0.005561      0.006468      0.000000
     51 C     c       0.000599      0.007129      0.002197      0.000000
     52 C     c      -0.000046      0.004142      0.000967      0.000000
     53 C     c       0.000217      0.008198      0.001313      0.000000
     54 C     c      -0.001587      0.004986      0.002927      0.000000
     55 C     c       0.002643      0.006022      0.005409      0.000000
     56 C     c       0.005060      0.006432      0.005045      0.000000
     57 C     c      -0.002537      0.004886      0.002422      0.000000
     58 C     c       0.001851      0.006101      0.000929      0.000000
     59 C     c      -0.001345      0.003229      0.002612      0.000000
     60 C     c      -0.000749      0.006810      0.001137      0.000000
     61 C     c       0.001262      0.003838     -0.002540      0.000000
     62 C     c       0.003496      0.001957      0.001176      0.000000
     63 C     c      -0.001768      0.000610      0.001941      0.000000
     64 C     c      -0.001195      0.000443     -0.000335      0.000000
--------------------------------------------------------------------------------
  Maximum abs         0.008379      0.011064      0.007544      0.000000
--------------------------------------------------------------------------------


  Time to end of optimisation =       1.3987 seconds


  Peak dynamic memory used =       1.98 MB 


  Timing analysis for GULP :

--------------------------------------------------------------------------------
  Task / Subroutine                                          Time (Seconds)
--------------------------------------------------------------------------------
  Calculation of Brenner energy and derivatives                   1.3701
--------------------------------------------------------------------------------
  Total CPU time                                                  1.3989
--------------------------------------------------------------------------------


  CIF file written as opti_1.0000.cif


  Job Finished at 16:48.22 11th August     2020                               

