********************************************************************************
*                       GENERAL UTILITY LATTICE PROGRAM                        *
*                                 Julian Gale                                  *
*                       Curtin Institute for Computation                       *
*                    School of Molecular and Life Sciences                     *
*                    Curtin University, Western Australia                      *
********************************************************************************
* Version = 5.2.0 * Last modified =  17th December 2019                        *
********************************************************************************
*  optimise     - perform optimisation run                                     *
*  conv         - constant volume calculation                                  *
*  isotropic    - only isotropic cell expansion to be allowed                  *
*  lbfgs        - use limited memory BFGS update                               *
********************************************************************************
* ASE calculation                                                              *
********************************************************************************


  Job Started  at 16:20.09 12th August     2020                               

  Number of CPUs =     1


  Total number of configurations input =      1

********************************************************************************
*  Input for Configuration =   1                                               *
********************************************************************************

  Formula = C64                                                         

  Number of irreducible atoms/shells =      64


  Total number atoms/shells =      64

  Dimensionality = 3               :  Bulk   



  Cartesian lattice vectors (Angstroms) :

        7.539258    0.000000    0.000000
        0.000000    7.539258    0.000000
        0.000000    0.000000    7.539258

  Cell parameters (Angstroms/Degrees):

  a =       7.5393    alpha =  90.0000
  b =       7.5393    beta  =  90.0000
  c =       7.5393    gamma =  90.0000

  Initial cell volume =         428.534525 Angs**3

  Temperature of configuration =   0.00     K 

  Pressure of configuration =         0.000 GPa 

  Fractional coordinates of asymmetric unit :

--------------------------------------------------------------------------------
   No.  Atomic       x           y          z         Charge      Occupancy
        Label      (Frac)      (Frac)     (Frac)        (e)         (Frac)  
--------------------------------------------------------------------------------
      1 C     c    0.082860    0.546420    0.420470     0.00000    1.000000    
      2 C     c    0.300470 *  0.098480 *  0.158050 *   0.00000    1.000000    
      3 C     c    0.135430 *  0.397320 *  0.321400 *   0.00000    1.000000    
      4 C     c    0.905490 *  0.925920 *  0.500530 *   0.00000    1.000000    
      5 C     c    0.496470 *  0.888330 *  0.033250 *   0.00000    1.000000    
      6 C     c    0.816780 *  0.441270 *  0.290230 *   0.00000    1.000000    
      7 C     c    0.945770 *  0.607820 *  0.761780 *   0.00000    1.000000    
      8 C     c    0.840320 *  0.519590 *  0.629820 *   0.00000    1.000000    
      9 C     c    0.152890 *  0.348160 *  0.688790 *   0.00000    1.000000    
     10 C     c    0.417360 *  0.733360 *  0.168120 *   0.00000    1.000000    
     11 C     c    0.912950 *  0.222370 *  0.789680 *   0.00000    1.000000    
     12 C     c    0.594660 *  0.873970 *  0.593910 *   0.00000    1.000000    
     13 C     c    0.450710 *  0.212820 *  0.666970 *   0.00000    1.000000    
     14 C     c    0.222920 *  0.959920 *  0.855440 *   0.00000    1.000000    
     15 C     c    0.544790 *  0.575680 *  0.447490 *   0.00000    1.000000    
     16 C     c    0.011880 *  0.923390 *  0.168010 *   0.00000    1.000000    
     17 C     c    0.170450 *  0.793090 *  0.921890 *   0.00000    1.000000    
     18 C     c    0.324040 *  0.692350 *  0.651930 *   0.00000    1.000000    
     19 C     c    0.762670 *  0.347470 *  0.713160 *   0.00000    1.000000    
     20 C     c    0.064920 *  0.226020 *  0.316700 *   0.00000    1.000000    
     21 C     c    0.939020 *  0.137230 *  0.452960 *   0.00000    1.000000    
     22 C     c    0.882990 *  0.573160 *  0.439880 *   0.00000    1.000000    
     23 C     c    0.483380 *  0.799280 *  0.721410 *   0.00000    1.000000    
     24 C     c    0.800220 *  0.235140 *  0.302270 *   0.00000    1.000000    
     25 C     c    0.720270 *  0.151940 *  0.111960 *   0.00000    1.000000    
     26 C     c    0.529470 *  0.570940 *  0.123160 *   0.00000    1.000000    
     27 C     c    0.623950 *  0.264260 *  0.582370 *   0.00000    1.000000    
     28 C     c    0.661500 *  0.958000 *  0.159510 *   0.00000    1.000000    
     29 C     c    0.510700 *  0.875200 *  0.296820 *   0.00000    1.000000    
     30 C     c    0.368170 *  0.034740 *  0.972170 *   0.00000    1.000000    
     31 C     c    0.838010 *  0.084970 *  0.940300 *   0.00000    1.000000    
     32 C     c    0.887020 *  0.741300 *  0.878490 *   0.00000    1.000000    
     33 C     c    0.329920 *  0.369220 *  0.625000 *   0.00000    1.000000    
     34 C     c    0.234910 *  0.665930 *  0.237200 *   0.00000    1.000000    
     35 C     c    0.097820 *  0.482080 *  0.828230 *   0.00000    1.000000    
     36 C     c    0.357300 *  0.059430 *  0.561620 *   0.00000    1.000000    
     37 C     c    0.205560 *  0.709380 *  0.458790 *   0.00000    1.000000    
     38 C     c    0.577830 *  0.283650 *  0.000200 *   0.00000    1.000000    
     39 C     c    0.096250 *  0.111340 *  0.154850 *   0.00000    1.000000    
     40 C     c    0.783300 *  0.916310 *  0.845700 *   0.00000    1.000000    
     41 C     c    0.406360 *  0.526900 *  0.561540 *   0.00000    1.000000    
     42 C     c    0.094690 *  0.865200 *  0.548260 *   0.00000    1.000000    
     43 C     c    0.072230 *  0.412820 *  0.017680 *   0.00000    1.000000    
     44 C     c    0.238240 *  0.455410 *  0.151960 *   0.00000    1.000000    
     45 C     c    0.203740 *  0.654420 *  0.807420 *   0.00000    1.000000    
     46 C     c    0.918830 *  0.504530 *  0.126220 *   0.00000    1.000000    
     47 C     c    0.828050 *  0.833420 *  0.193820 *   0.00000    1.000000    
     48 C     c    0.017560 *  0.212950 *  0.992570 *   0.00000    1.000000    
     49 C     c    0.812710 *  0.769570 *  0.389370 *   0.00000    1.000000    
     50 C     c    0.835940 *  0.673740 *  0.062610 *   0.00000    1.000000    
     51 C     c    0.185060 *  0.009430 *  0.659170 *   0.00000    1.000000    
     52 C     c    0.457630 *  0.216810 *  0.274090 *   0.00000    1.000000    
     53 C     c    0.431410 *  0.378370 *  0.134190 *   0.00000    1.000000    
     54 C     c    0.387750 *  0.028060 *  0.356610 *   0.00000    1.000000    
     55 C     c    0.620120 *  0.243470 *  0.401380 *   0.00000    1.000000    
     56 C     c    0.467290 *  0.174440 *  0.869580 *   0.00000    1.000000    
     57 C     c    0.671060 *  0.425450 *  0.885090 *   0.00000    1.000000    
     58 C     c    0.760010 *  0.942560 *  0.648250 *   0.00000    1.000000    
     59 C     c    0.130720 *  0.786950 *  0.105540 *   0.00000    1.000000    
     60 C     c    0.614630 *  0.488110 *  0.292770 *   0.00000    1.000000    
     61 C     c    0.609350 *  0.770250 *  0.432430 *   0.00000    1.000000    
     62 C     c    0.047380 *  0.170810 *  0.640760 *   0.00000    1.000000    
     63 C     c    0.654620 *  0.612400 *  0.969500 *   0.00000    1.000000    
     64 C     c    0.597000 *  0.795710 *  0.888070 *   0.00000    1.000000    
--------------------------------------------------------------------------------


  Constraints : 

--------------------------------------------------------------------------------
  Constraint no.      Unconstrained     Constrained    Coefficient    Offset
                         Variable         Variable
--------------------------------------------------------------------------------
           1              Strain 1        Strain 2       1.00000      0.0000
           2              Strain 1        Strain 3       1.00000      0.0000
--------------------------------------------------------------------------------


********************************************************************************
*  General input information                                                   *
********************************************************************************

  Species output for all configurations : 

--------------------------------------------------------------------------------
  Species    Type    Atomic    Atomic    Charge       Radii (Angs)     Library
                     Number     Mass       (e)     Cova   Ionic  VDW   Symbol
--------------------------------------------------------------------------------
    C        Core        6      12.01   0.000000   0.770  0.000  1.530          
--------------------------------------------------------------------------------


  Lattice summation method               =    Ewald          (3-D)
                                         =    Parry          (2-D)
                                         =    Saunders et al (1-D)
  Accuracy factor for lattice sums       =   12.000


  Analytic derivatives to be used

  Time limit = Infinity

  Maximum range for interatomic potentials =    100000.000000 Angstroms

  Brenner et al 2002 potential to be used with explicit splines for P


********************************************************************************
*  Output for configuration   1                                                *
********************************************************************************


  Components of energy : 

--------------------------------------------------------------------------------
  Interatomic potentials     =           0.00000000 eV    
  Brenner potentials         =        -425.19137623 eV    
  Monopole - monopole (real) =           0.00000000 eV    
  Monopole - monopole (recip)=           0.00000000 eV    
  Monopole - monopole (total)=           0.00000000 eV    
--------------------------------------------------------------------------------
  Total lattice energy       =        -425.19137623 eV    
--------------------------------------------------------------------------------
  Total lattice energy       =          -41024.4682 kJ/(mole unit cells)
--------------------------------------------------------------------------------


  Number of variables =      189

  Maximum number of calculations  =          2000
  Maximum Hessian update interval =            10
  Maximum step size               =   1.000000000
  Maximum parameter tolerance     =   0.000010000
  Maximum function  tolerance     =   0.000010000
  Maximum gradient  tolerance     =   0.001000000
  Maximum gradient  component     =   0.010000000

  Maximum LM gradient tolerance   =   0.900000000
  Symmetry not applied to optimisation

  Limited Memory BFGS to be used of order   10

  BFGS hessian update to be used

  Lower half triangular hessian to be used

  Start of bulk optimisation :

  Cycle:      0 Energy:      -425.191376  Gnorm:      0.147377  CPU:    0.027
  Cycle:      1 Energy:      -425.197420  Gnorm:      0.128959  CPU:    0.034
  Cycle:      2 Energy:      -425.221889  Gnorm:      0.036351  CPU:    0.037
  Cycle:      3 Energy:      -425.224458  Gnorm:      0.029339  CPU:    0.049
  Cycle:      4 Energy:      -425.227611  Gnorm:      0.023514  CPU:    0.063
  Cycle:      5 Energy:      -425.230517  Gnorm:      0.019320  CPU:    0.068
  Cycle:      6 Energy:      -425.231838  Gnorm:      0.034719  CPU:    0.073
  Cycle:      7 Energy:      -425.233415  Gnorm:      0.012059  CPU:    0.091
  Cycle:      8 Energy:      -425.233977  Gnorm:      0.009640  CPU:    0.099
  Cycle:      9 Energy:      -425.234645  Gnorm:      0.010234  CPU:    0.104
  Cycle:     10 Energy:      -425.235253  Gnorm:      0.013944  CPU:    0.108
  Cycle:     11 Energy:      -425.235556  Gnorm:      0.013215  CPU:    0.111
  Cycle:     12 Energy:      -425.235824  Gnorm:      0.005031  CPU:    0.115
  Cycle:     13 Energy:      -425.235937  Gnorm:      0.004714  CPU:    0.123
  Cycle:     14 Energy:      -425.236090  Gnorm:      0.005046  CPU:    0.139
  Cycle:     15 Energy:      -425.236253  Gnorm:      0.006520  CPU:    0.145
  Cycle:     16 Energy:      -425.236326  Gnorm:      0.003725  CPU:    0.152
  Cycle:     17 Energy:      -425.236363  Gnorm:      0.002210  CPU:    0.155
  Cycle:     18 Energy:      -425.236396  Gnorm:      0.002436  CPU:    0.159
  Cycle:     19 Energy:      -425.236434  Gnorm:      0.003118  CPU:    0.162
  Cycle:     20 Energy:      -425.236460  Gnorm:      0.004912  CPU:    0.182
  Cycle:     21 Energy:      -425.236501  Gnorm:      0.001953  CPU:    0.188
  Cycle:     22 Energy:      -425.236517  Gnorm:      0.001666  CPU:    0.193
  Cycle:     23 Energy:      -425.236546  Gnorm:      0.001936  CPU:    0.197
  Cycle:     24 Energy:      -425.236577  Gnorm:      0.002671  CPU:    0.201
  Cycle:     25 Energy:      -425.236605  Gnorm:      0.002699  CPU:    0.205
  Cycle:     26 Energy:      -425.236625  Gnorm:      0.001733  CPU:    0.216
  Cycle:     27 Energy:      -425.236643  Gnorm:      0.002065  CPU:    0.231
  Cycle:     28 Energy:      -425.236664  Gnorm:      0.002206  CPU:    0.237
  Cycle:     29 Energy:      -425.236689  Gnorm:      0.003680  CPU:    0.241
  Cycle:     30 Energy:      -425.236717  Gnorm:      0.001812  CPU:    0.245
  Cycle:     31 Energy:      -425.236742  Gnorm:      0.002096  CPU:    0.249
  Cycle:     32 Energy:      -425.236762  Gnorm:      0.002313  CPU:    0.253
  Cycle:     33 Energy:      -425.236785  Gnorm:      0.004081  CPU:    0.276
  Cycle:     34 Energy:      -425.236822  Gnorm:      0.002151  CPU:    0.281
  Cycle:     35 Energy:      -425.236848  Gnorm:      0.001862  CPU:    0.286
  Cycle:     36 Energy:      -425.236883  Gnorm:      0.002310  CPU:    0.289
  Cycle:     37 Energy:      -425.236888  Gnorm:      0.006122  CPU:    0.293
  Cycle:     38 Energy:      -425.236929  Gnorm:      0.002102  CPU:    0.296
  Cycle:     39 Energy:      -425.236945  Gnorm:      0.001604  CPU:    0.313
  Cycle:     40 Energy:      -425.236969  Gnorm:      0.002222  CPU:    0.322
  Cycle:     41 Energy:      -425.237003  Gnorm:      0.002878  CPU:    0.327
  Cycle:     42 Energy:      -425.237017  Gnorm:      0.005804  CPU:    0.331
  Cycle:     43 Energy:      -425.237061  Gnorm:      0.001838  CPU:    0.335
  Cycle:     44 Energy:      -425.237075  Gnorm:      0.001657  CPU:    0.338
  Cycle:     45 Energy:      -425.237096  Gnorm:      0.001947  CPU:    0.341
  Cycle:     46 Energy:      -425.237120  Gnorm:      0.003528  CPU:    0.361
  Cycle:     47 Energy:      -425.237139  Gnorm:      0.002091  CPU:    0.367
  Cycle:     48 Energy:      -425.237148  Gnorm:      0.001156  CPU:    0.372
  Cycle:     49 Energy:      -425.237156  Gnorm:      0.001162  CPU:    0.376
  Cycle:     50 Energy:      -425.237164  Gnorm:      0.001336  CPU:    0.380
  Cycle:     51 Energy:      -425.237171  Gnorm:      0.002470  CPU:    0.384
  Cycle:     52 Energy:      -425.237182  Gnorm:      0.001274  CPU:    0.393
  Cycle:     53 Energy:      -425.237188  Gnorm:      0.000821  CPU:    0.409
  Cycle:     54 Energy:      -425.237193  Gnorm:      0.001053  CPU:    0.414
  Cycle:     55 Energy:      -425.237197  Gnorm:      0.001412  CPU:    0.419
  Cycle:     56 Energy:      -425.237202  Gnorm:      0.000980  CPU:    0.423
  Cycle:     57 Energy:      -425.237207  Gnorm:      0.000849  CPU:    0.426
  Cycle:     58 Energy:      -425.237212  Gnorm:      0.000995  CPU:    0.444
  Cycle:     59 Energy:      -425.237217  Gnorm:      0.001493  CPU:    0.452
  Cycle:     60 Energy:      -425.237223  Gnorm:      0.001272  CPU:    0.457
  Cycle:     61 Energy:      -425.237227  Gnorm:      0.000851  CPU:    0.461
  Cycle:     62 Energy:      -425.237232  Gnorm:      0.000905  CPU:    0.465
  Cycle:     63 Energy:      -425.237238  Gnorm:      0.001044  CPU:    0.468
  Cycle:     64 Energy:      -425.237239  Gnorm:      0.002759  CPU:    0.473
  Cycle:     65 Energy:      -425.237248  Gnorm:      0.000730  CPU:    0.493
  Cycle:     66 Energy:      -425.237250  Gnorm:      0.000611  CPU:    0.499
  Cycle:     67 Energy:      -425.237253  Gnorm:      0.000842  CPU:    0.504
  Cycle:     68 Energy:      -425.237257  Gnorm:      0.001276  CPU:    0.508
  Cycle:     69 Energy:      -425.237263  Gnorm:      0.001032  CPU:    0.513
  Cycle:     70 Energy:      -425.237267  Gnorm:      0.000816  CPU:    0.516
  Cycle:     71 Energy:      -425.237275  Gnorm:      0.001273  CPU:    0.536
  Cycle:     72 Energy:      -425.237281  Gnorm:      0.001168  CPU:    0.545
  Cycle:     73 Energy:      -425.237289  Gnorm:      0.001455  CPU:    0.559
  Cycle:     74 Energy:      -425.237296  Gnorm:      0.001721  CPU:    0.572
  Cycle:     75 Energy:      -425.237302  Gnorm:      0.000933  CPU:    0.577
  Cycle:     76 Energy:      -425.237308  Gnorm:      0.000930  CPU:    0.581
  Cycle:     77 Energy:      -425.237315  Gnorm:      0.001348  CPU:    0.585
  Cycle:     78 Energy:      -425.237324  Gnorm:      0.002237  CPU:    0.588
  Cycle:     79 Energy:      -425.237334  Gnorm:      0.001106  CPU:    0.591
  Cycle:     80 Energy:      -425.237340  Gnorm:      0.000951  CPU:    0.611
  Cycle:     81 Energy:      -425.237346  Gnorm:      0.000869  CPU:    0.618
  Cycle:     82 Energy:      -425.237354  Gnorm:      0.000872  CPU:    0.623
  Cycle:     83 Energy:      -425.237355  Gnorm:      0.000946  CPU:    0.629
  Cycle:     84 Energy:      -425.237358  Gnorm:      0.000481  CPU:    0.632
  Cycle:     85 Energy:      -425.237359  Gnorm:      0.000453  CPU:    0.635
  Cycle:     86 Energy:      -425.237361  Gnorm:      0.000806  CPU:    0.650
  Cycle:     87 Energy:      -425.237362  Gnorm:      0.000443  CPU:    0.661
  Cycle:     88 Energy:      -425.237363  Gnorm:      0.000352  CPU:    0.666
  Cycle:     89 Energy:      -425.237364  Gnorm:      0.000369  CPU:    0.671
  Cycle:     90 Energy:      -425.237364  Gnorm:      0.000826  CPU:    0.675
  Cycle:     91 Energy:      -425.237365  Gnorm:      0.000253  CPU:    0.678


  **** Optimisation achieved ****


  Final energy =    -425.23736507 eV
  Final Gnorm  =       0.00019729

  Components of energy : 

--------------------------------------------------------------------------------
  Interatomic potentials     =           0.00000000 eV    
  Brenner potentials         =        -425.23736507 eV    
  Monopole - monopole (real) =           0.00000000 eV    
  Monopole - monopole (recip)=           0.00000000 eV    
  Monopole - monopole (total)=           0.00000000 eV    
--------------------------------------------------------------------------------
  Total lattice energy       =        -425.23736507 eV    
--------------------------------------------------------------------------------
  Total lattice energy       =          -41028.9054 kJ/(mole unit cells)
--------------------------------------------------------------------------------

  Final fractional coordinates of atoms :

--------------------------------------------------------------------------------
   No.  Atomic        x           y          z          Radius
        Label       (Frac)      (Frac)     (Frac)       (Angs) 
--------------------------------------------------------------------------------
     1  C     c     0.082860    0.546420    0.420470    0.000000
     2  C     c     0.302018    0.097945    0.159818    0.000000
     3  C     c     0.134457    0.397498    0.321406    0.000000
     4  C     c     0.906745    0.925908    0.502370    0.000000
     5  C     c     0.498270    0.887657    0.035293    0.000000
     6  C     c     0.816626    0.440803    0.292466    0.000000
     7  C     c     0.946422    0.606591    0.764003    0.000000
     8  C     c     0.841893    0.518504    0.631761    0.000000
     9  C     c     0.154633    0.347877    0.691374    0.000000
    10  C     c     0.418736    0.733127    0.169865    0.000000
    11  C     c     0.913944    0.221316    0.791506    0.000000
    12  C     c     0.596743    0.871062    0.596054    0.000000
    13  C     c     0.451728    0.212887    0.668582    0.000000
    14  C     c     0.225515    0.959075    0.856579    0.000000
    15  C     c     0.544995    0.575656    0.448650    0.000000
    16  C     c     0.013785    0.922315    0.168955    0.000000
    17  C     c     0.172530    0.792839    0.922924    0.000000
    18  C     c     0.323820    0.691775    0.652161    0.000000
    19  C     c     0.763642    0.346783    0.715050    0.000000
    20  C     c     0.064782    0.226241    0.316826    0.000000
    21  C     c     0.940452    0.137429    0.454094    0.000000
    22  C     c     0.883646    0.572598    0.441895    0.000000
    23  C     c     0.484873    0.796914    0.722939    0.000000
    24  C     c     0.801111    0.234822    0.305012    0.000000
    25  C     c     0.721763    0.150999    0.113792    0.000000
    26  C     c     0.530547    0.570890    0.125123    0.000000
    27  C     c     0.624668    0.263929    0.583980    0.000000
    28  C     c     0.663414    0.957050    0.160986    0.000000
    29  C     c     0.512332    0.874979    0.297794    0.000000
    30  C     c     0.370038    0.034000    0.973883    0.000000
    31  C     c     0.839279    0.083824    0.941585    0.000000
    32  C     c     0.886556    0.739232    0.880426    0.000000
    33  C     c     0.331285    0.369291    0.627561    0.000000
    34  C     c     0.236342    0.665566    0.238902    0.000000
    35  C     c     0.098728    0.481768    0.830263    0.000000
    36  C     c     0.358348    0.060023    0.562561    0.000000
    37  C     c     0.206035    0.708654    0.459497    0.000000
    38  C     c     0.578797    0.283169    0.001808    0.000000
    39  C     c     0.097559    0.110759    0.156105    0.000000
    40  C     c     0.784289    0.914773    0.847488    0.000000
    41  C     c     0.407190    0.526498    0.563034    0.000000
    42  C     c     0.096206    0.865395    0.549198    0.000000
    43  C     c     0.072710    0.412369    0.019764    0.000000
    44  C     c     0.239739    0.455879    0.153960    0.000000
    45  C     c     0.203215    0.654678    0.807788    0.000000
    46  C     c     0.919158    0.503629    0.128622    0.000000
    47  C     c     0.829935    0.832511    0.195328    0.000000
    48  C     c     0.017714    0.212273    0.993801    0.000000
    49  C     c     0.813643    0.769241    0.390993    0.000000
    50  C     c     0.836749    0.672553    0.064737    0.000000
    51  C     c     0.186688    0.009232    0.660322    0.000000
    52  C     c     0.458655    0.216354    0.274833    0.000000
    53  C     c     0.433065    0.378564    0.136421    0.000000
    54  C     c     0.389613    0.027900    0.357340    0.000000
    55  C     c     0.620903    0.242932    0.403375    0.000000
    56  C     c     0.468587    0.173918    0.871397    0.000000
    57  C     c     0.672068    0.424824    0.887046    0.000000
    58  C     c     0.761489    0.939599    0.650187    0.000000
    59  C     c     0.133086    0.786771    0.106411    0.000000
    60  C     c     0.615152    0.488433    0.294409    0.000000
    61  C     c     0.610171    0.769932    0.433619    0.000000
    62  C     c     0.048791    0.170857    0.642825    0.000000
    63  C     c     0.655554    0.611554    0.971741    0.000000
    64  C     c     0.598086    0.794621    0.890027    0.000000
--------------------------------------------------------------------------------

  Final internal derivatives :

--------------------------------------------------------------------------------
   No.  Atomic          a             b             c           Radius
        Label          (eV)          (eV)          (eV)        (eV/Angs)
--------------------------------------------------------------------------------
      1 C     c       0.000000      0.000000      0.000000      0.000000
      2 C     c       0.001457     -0.000336     -0.001830      0.000000
      3 C     c       0.002981     -0.000765     -0.000969      0.000000
      4 C     c      -0.004985      0.003007     -0.003683      0.000000
      5 C     c       0.002331     -0.002232     -0.006592      0.000000
      6 C     c      -0.002178     -0.003833      0.002018      0.000000
      7 C     c      -0.001541      0.000026      0.001381      0.000000
      8 C     c       0.001360      0.002839      0.001666      0.000000
      9 C     c       0.004788     -0.002608      0.003618      0.000000
     10 C     c      -0.002049      0.001653      0.001033      0.000000
     11 C     c       0.002777     -0.000388      0.002006      0.000000
     12 C     c      -0.003168      0.002285     -0.001978      0.000000
     13 C     c       0.001670      0.000580     -0.001094      0.000000
     14 C     c       0.005617      0.001523     -0.002772      0.000000
     15 C     c      -0.000846      0.002176     -0.002335      0.000000
     16 C     c       0.003203      0.000702     -0.001409      0.000000
     17 C     c       0.001831      0.002159     -0.001245      0.000000
     18 C     c      -0.000902     -0.003333      0.003423      0.000000
     19 C     c      -0.000063     -0.003194     -0.000995      0.000000
     20 C     c      -0.000498     -0.001663      0.002034      0.000000
     21 C     c      -0.001118     -0.001996     -0.006764      0.000000
     22 C     c      -0.000902      0.004537     -0.003137      0.000000
     23 C     c      -0.003683      0.001715     -0.000320      0.000000
     24 C     c       0.007378     -0.004438      0.000226      0.000000
     25 C     c       0.000247     -0.003532      0.003003      0.000000
     26 C     c      -0.002152     -0.004022     -0.003612      0.000000
     27 C     c       0.000955      0.003013     -0.002379      0.000000
     28 C     c       0.002620      0.002637     -0.001617      0.000000
     29 C     c       0.002845      0.003255      0.004442      0.000000
     30 C     c       0.006086      0.001425     -0.002531      0.000000
     31 C     c       0.003601     -0.000666     -0.000948      0.000000
     32 C     c       0.001281     -0.001513      0.000159      0.000000
     33 C     c       0.002429      0.000619     -0.001562      0.000000
     34 C     c       0.002825      0.003609      0.006865      0.000000
     35 C     c      -0.000990     -0.002838      0.002411      0.000000
     36 C     c      -0.001916     -0.000366     -0.000842      0.000000
     37 C     c      -0.001685      0.001022     -0.002627      0.000000
     38 C     c       0.004600     -0.001956     -0.006019      0.000000
     39 C     c       0.002644     -0.001872      0.002785      0.000000
     40 C     c       0.001130     -0.006124     -0.003041      0.000000
     41 C     c       0.002562      0.000849      0.000761      0.000000
     42 C     c      -0.003520      0.004200      0.000586      0.000000
     43 C     c      -0.001080     -0.002657      0.001106      0.000000
     44 C     c       0.000304      0.002941     -0.002465      0.000000
     45 C     c      -0.000195     -0.000524      0.000682      0.000000
     46 C     c       0.000813      0.001383      0.002704      0.000000
     47 C     c       0.007384      0.000872     -0.000399      0.000000
     48 C     c       0.000822     -0.001556     -0.000524      0.000000
     49 C     c      -0.000256     -0.000217     -0.001406      0.000000
     50 C     c      -0.002081     -0.004118     -0.002494      0.000000
     51 C     c       0.005517     -0.002385      0.000398      0.000000
     52 C     c       0.004784      0.000891      0.002667      0.000000
     53 C     c       0.001387      0.001689     -0.000017      0.000000
     54 C     c      -0.000160     -0.005841      0.002753      0.000000
     55 C     c       0.002821     -0.000386      0.000354      0.000000
     56 C     c       0.006411     -0.000113      0.000852      0.000000
     57 C     c      -0.000555     -0.006010      0.001553      0.000000
     58 C     c      -0.001124      0.000779     -0.001637      0.000000
     59 C     c       0.002940      0.001577      0.000069      0.000000
     60 C     c       0.002721      0.000809     -0.000466      0.000000
     61 C     c      -0.000340      0.002118     -0.003809      0.000000
     62 C     c       0.000180     -0.000846      0.000084      0.000000
     63 C     c      -0.000759      0.003955     -0.001786      0.000000
     64 C     c      -0.001150     -0.001940      0.000117      0.000000
--------------------------------------------------------------------------------
  Maximum abs         0.007384      0.006124      0.006865      0.000000
--------------------------------------------------------------------------------


  Time to end of optimisation =       0.6845 seconds


  Peak dynamic memory used =       2.01 MB 


  Timing analysis for GULP :

--------------------------------------------------------------------------------
  Task / Subroutine                                          Time (Seconds)
--------------------------------------------------------------------------------
  Calculation of Brenner energy and derivatives                   0.6519
--------------------------------------------------------------------------------
  Total CPU time                                                  0.6846
--------------------------------------------------------------------------------


  CIF file written as opti_1.0000.cif


  Job Finished at 16:20.10 12th August     2020                               

