********************************************************************************
*                       GENERAL UTILITY LATTICE PROGRAM                        *
*                                 Julian Gale                                  *
*                       Curtin Institute for Computation                       *
*                    School of Molecular and Life Sciences                     *
*                    Curtin University, Western Australia                      *
********************************************************************************
* Version = 5.2.0 * Last modified =  17th December 2019                        *
********************************************************************************
*  optimise     - perform optimisation run                                     *
*  conv         - constant volume calculation                                  *
*  isotropic    - only isotropic cell expansion to be allowed                  *
*  conjugate    - use conjugate gradients minimiser                            *
********************************************************************************
* ASE calculation                                                              *
********************************************************************************


  Job Started  at 23:36.16 10th August     2020                               

  Number of CPUs =     1


  Total number of configurations input =      1

********************************************************************************
*  Input for Configuration =   1                                               *
********************************************************************************

  Formula = C64                                                         

  Number of irreducible atoms/shells =      64


  Total number atoms/shells =      64

  Dimensionality = 3               :  Bulk   



  Cartesian lattice vectors (Angstroms) :

        7.608981    0.000000    0.000000
        0.000000    7.608981    0.000000
        0.000000    0.000000    7.608981

  Cell parameters (Angstroms/Degrees):

  a =       7.6090    alpha =  90.0000
  b =       7.6090    beta  =  90.0000
  c =       7.6090    gamma =  90.0000

  Initial cell volume =         440.534067 Angs**3

  Temperature of configuration =   0.00     K 

  Pressure of configuration =         0.000 GPa 

  Fractional coordinates of asymmetric unit :

--------------------------------------------------------------------------------
   No.  Atomic       x           y          z         Charge      Occupancy
        Label      (Frac)      (Frac)     (Frac)        (e)         (Frac)  
--------------------------------------------------------------------------------
      1 C     c    0.025100    0.587150    0.365320     0.00000    1.000000    
      2 C     c    0.261960 *  0.102350 *  0.107880 *   0.00000    1.000000    
      3 C     c    0.100080 *  0.438460 *  0.267700 *   0.00000    1.000000    
      4 C     c    0.878960 *  0.966820 *  0.452800 *   0.00000    1.000000    
      5 C     c    0.476970 *  0.917400 *  0.988740 *   0.00000    1.000000    
      6 C     c    0.786990 *  0.447150 *  0.220140 *   0.00000    1.000000    
      7 C     c    0.923040 *  0.637530 *  0.717050 *   0.00000    1.000000    
      8 C     c    0.810170 *  0.554570 *  0.590270 *   0.00000    1.000000    
      9 C     c    0.131790 *  0.380040 *  0.638710 *   0.00000    1.000000    
     10 C     c    0.404270 *  0.764550 *  0.117610 *   0.00000    1.000000    
     11 C     c    0.889700 *  0.256980 *  0.746610 *   0.00000    1.000000    
     12 C     c    0.569910 *  0.900620 *  0.557400 *   0.00000    1.000000    
     13 C     c    0.425650 *  0.240870 *  0.632440 *   0.00000    1.000000    
     14 C     c    0.200020 *  0.983730 *  0.798590 *   0.00000    1.000000    
     15 C     c    0.523060 *  0.608540 *  0.406760 *   0.00000    1.000000    
     16 C     c    0.987720 *  0.938200 *  0.121300 *   0.00000    1.000000    
     17 C     c    0.134680 *  0.821550 *  0.858210 *   0.00000    1.000000    
     18 C     c    0.347750 *  0.690110 *  0.662490 *   0.00000    1.000000    
     19 C     c    0.738190 *  0.384180 *  0.683430 *   0.00000    1.000000    
     20 C     c    0.046460 *  0.258110 *  0.266300 *   0.00000    1.000000    
     21 C     c    0.936080 *  0.173340 *  0.419850 *   0.00000    1.000000    
     22 C     c    0.843300 *  0.615880 *  0.414960 *   0.00000    1.000000    
     23 C     c    0.478470 *  0.818970 *  0.689890 *   0.00000    1.000000    
     24 C     c    0.794120 *  0.296780 *  0.327440 *   0.00000    1.000000    
     25 C     c    0.669440 *  0.161030 *  0.017330 *   0.00000    1.000000    
     26 C     c    0.520340 *  0.604650 *  0.088350 *   0.00000    1.000000    
     27 C     c    0.606080 *  0.280540 *  0.571440 *   0.00000    1.000000    
     28 C     c    0.633890 *  0.989520 *  0.119020 *   0.00000    1.000000    
     29 C     c    0.479160 *  0.916090 *  0.251290 *   0.00000    1.000000    
     30 C     c    0.339390 *  0.056680 *  0.923070 *   0.00000    1.000000    
     31 C     c    0.810280 *  0.113020 *  0.884120 *   0.00000    1.000000    
     32 C     c    0.867960 *  0.767490 *  0.838100 *   0.00000    1.000000    
     33 C     c    0.307470 *  0.395320 *  0.575810 *   0.00000    1.000000    
     34 C     c    0.226620 *  0.687030 *  0.123410 *   0.00000    1.000000    
     35 C     c    0.071610 *  0.510040 *  0.779400 *   0.00000    1.000000    
     36 C     c    0.326190 *  0.102150 *  0.509580 *   0.00000    1.000000    
     37 C     c    0.121970 *  0.741100 *  0.423810 *   0.00000    1.000000    
     38 C     c    0.542650 *  0.314790 *  0.957100 *   0.00000    1.000000    
     39 C     c    0.063420 *  0.131370 *  0.109250 *   0.00000    1.000000    
     40 C     c    0.769650 *  0.942180 *  0.796810 *   0.00000    1.000000    
     41 C     c    0.392750 *  0.558230 *  0.534200 *   0.00000    1.000000    
     42 C     c    0.068190 *  0.896530 *  0.498720 *   0.00000    1.000000    
     43 C     c    0.001700 *  0.428840 *  0.954850 *   0.00000    1.000000    
     44 C     c    0.238470 *  0.500650 *  0.156150 *   0.00000    1.000000    
     45 C     c    0.195640 *  0.672080 *  0.768160 *   0.00000    1.000000    
     46 C     c    0.892950 *  0.519810 *  0.081840 *   0.00000    1.000000    
     47 C     c    0.799970 *  0.863030 *  0.155410 *   0.00000    1.000000    
     48 C     c    0.985830 *  0.222020 *  0.949250 *   0.00000    1.000000    
     49 C     c    0.775600 *  0.805370 *  0.350130 *   0.00000    1.000000    
     50 C     c    0.821570 *  0.700470 *  0.025360 *   0.00000    1.000000    
     51 C     c    0.158980 *  0.041530 *  0.607950 *   0.00000    1.000000    
     52 C     c    0.476040 *  0.263670 *  0.276630 *   0.00000    1.000000    
     53 C     c    0.434680 *  0.399100 *  0.122780 *   0.00000    1.000000    
     54 C     c    0.365660 *  0.086630 *  0.294640 *   0.00000    1.000000    
     55 C     c    0.624160 *  0.266270 *  0.391700 *   0.00000    1.000000    
     56 C     c    0.422290 *  0.211340 *  0.832230 *   0.00000    1.000000    
     57 C     c    0.643820 *  0.455720 *  0.850330 *   0.00000    1.000000    
     58 C     c    0.737120 *  0.967710 *  0.602660 *   0.00000    1.000000    
     59 C     c    0.099210 *  0.802470 *  0.043610 *   0.00000    1.000000    
     60 C     c    0.617730 *  0.536110 *  0.254430 *   0.00000    1.000000    
     61 C     c    0.572990 *  0.809180 *  0.390000 *   0.00000    1.000000    
     62 C     c    0.027000 *  0.208410 *  0.602340 *   0.00000    1.000000    
     63 C     c    0.640770 *  0.641500 *  0.932270 *   0.00000    1.000000    
     64 C     c    0.588560 *  0.824650 *  0.852350 *   0.00000    1.000000    
--------------------------------------------------------------------------------


  Constraints : 

--------------------------------------------------------------------------------
  Constraint no.      Unconstrained     Constrained    Coefficient    Offset
                         Variable         Variable
--------------------------------------------------------------------------------
           1              Strain 1        Strain 2       1.00000      0.0000
           2              Strain 1        Strain 3       1.00000      0.0000
--------------------------------------------------------------------------------


********************************************************************************
*  General input information                                                   *
********************************************************************************

  Species output for all configurations : 

--------------------------------------------------------------------------------
  Species    Type    Atomic    Atomic    Charge       Radii (Angs)     Library
                     Number     Mass       (e)     Cova   Ionic  VDW   Symbol
--------------------------------------------------------------------------------
    C        Core        6      12.01   0.000000   0.770  0.000  1.530          
--------------------------------------------------------------------------------


  Lattice summation method               =    Ewald          (3-D)
                                         =    Parry          (2-D)
                                         =    Saunders et al (1-D)
  Accuracy factor for lattice sums       =   12.000


  Analytic derivatives to be used

  Time limit = Infinity

  Maximum range for interatomic potentials =    100000.000000 Angstroms

  Brenner et al 2002 potential to be used with explicit splines for P


********************************************************************************
*  Output for configuration   1                                                *
********************************************************************************


  Components of energy : 

--------------------------------------------------------------------------------
  Interatomic potentials     =           0.00000000 eV    
  Brenner potentials         =        -428.35465721 eV    
  Monopole - monopole (real) =           0.00000000 eV    
  Monopole - monopole (recip)=           0.00000000 eV    
  Monopole - monopole (total)=           0.00000000 eV    
--------------------------------------------------------------------------------
  Total lattice energy       =        -428.35465721 eV    
--------------------------------------------------------------------------------
  Total lattice energy       =          -41329.6764 kJ/(mole unit cells)
--------------------------------------------------------------------------------


  Number of variables =      189

  Maximum number of calculations  =          2000
  Maximum Hessian update interval =            10
  Maximum step size               =   1.000000000
  Maximum parameter tolerance     =   0.000010000
  Maximum function  tolerance     =   0.000010000
  Maximum gradient  tolerance     =   0.001000000
  Maximum gradient  component     =   0.010000000

  Symmetry not applied to optimisation

  Conjugate gradient optimiser to be used

  Lower half triangular hessian to be used

  Start of bulk optimisation :

  Cycle:      0 Energy:      -428.354657  Gnorm:      0.110232  CPU:    0.036
  Cycle:      1 Energy:      -428.368204  Gnorm:      0.046405  CPU:    0.059
  Cycle:      2 Energy:      -428.374560  Gnorm:      0.041397  CPU:    0.074
  Cycle:      3 Energy:      -428.378001  Gnorm:      0.041051  CPU:    0.080
  Cycle:      4 Energy:      -428.381327  Gnorm:      0.028708  CPU:    0.085
  Cycle:      5 Energy:      -428.383365  Gnorm:      0.025764  CPU:    0.112
  Cycle:      6 Energy:      -428.385546  Gnorm:      0.026921  CPU:    0.122
  Cycle:      7 Energy:      -428.387362  Gnorm:      0.018314  CPU:    0.128
  Cycle:      8 Energy:      -428.388382  Gnorm:      0.018342  CPU:    0.157
  Cycle:      9 Energy:      -428.389134  Gnorm:      0.015487  CPU:    0.165
  Cycle:     10 Energy:      -428.389441  Gnorm:      0.007722  CPU:    0.171
  Cycle:     11 Energy:      -428.389686  Gnorm:      0.009566  CPU:    0.185
  Cycle:     12 Energy:      -428.389974  Gnorm:      0.009500  CPU:    0.204
  Cycle:     13 Energy:      -428.390307  Gnorm:      0.009364  CPU:    0.211
  Cycle:     14 Energy:      -428.390466  Gnorm:      0.005770  CPU:    0.217
  Cycle:     15 Energy:      -428.390711  Gnorm:      0.006427  CPU:    0.242
  Cycle:     16 Energy:      -428.390832  Gnorm:      0.006549  CPU:    0.251
  Cycle:     17 Energy:      -428.390957  Gnorm:      0.005335  CPU:    0.257
  Cycle:     18 Energy:      -428.391033  Gnorm:      0.004723  CPU:    0.280
  Cycle:     19 Energy:      -428.391094  Gnorm:      0.003632  CPU:    0.289
  Cycle:     20 Energy:      -428.391113  Gnorm:      0.002487  CPU:    0.296
  Cycle:     21 Energy:      -428.391138  Gnorm:      0.002238  CPU:    0.320
  Cycle:     22 Energy:      -428.391162  Gnorm:      0.003320  CPU:    0.331
  Cycle:     23 Energy:      -428.391184  Gnorm:      0.002289  CPU:    0.337
  Cycle:     24 Energy:      -428.391197  Gnorm:      0.001931  CPU:    0.348
  Cycle:     25 Energy:      -428.391214  Gnorm:      0.002192  CPU:    0.370
  Cycle:     26 Energy:      -428.391226  Gnorm:      0.002183  CPU:    0.377
  Cycle:     27 Energy:      -428.391235  Gnorm:      0.001640  CPU:    0.382
  Cycle:     28 Energy:      -428.391251  Gnorm:      0.001921  CPU:    0.409
  Cycle:     29 Energy:      -428.391257  Gnorm:      0.001670  CPU:    0.416
  Cycle:     30 Energy:      -428.391262  Gnorm:      0.001175  CPU:    0.423
  Cycle:     31 Energy:      -428.391268  Gnorm:      0.001440  CPU:    0.449
  Cycle:     32 Energy:      -428.391271  Gnorm:      0.001663  CPU:    0.456
  Cycle:     33 Energy:      -428.391275  Gnorm:      0.001322  CPU:    0.462
  Cycle:     34 Energy:      -428.391282  Gnorm:      0.001642  CPU:    0.487
  Cycle:     35 Energy:      -428.391287  Gnorm:      0.001335  CPU:    0.496
  Cycle:     36 Energy:      -428.391293  Gnorm:      0.001756  CPU:    0.503
  Cycle:     37 Energy:      -428.391301  Gnorm:      0.001276  CPU:    0.527
  Cycle:     38 Energy:      -428.391311  Gnorm:      0.002337  CPU:    0.537
  Cycle:     39 Energy:      -428.391328  Gnorm:      0.003072  CPU:    0.544
  Cycle:     40 Energy:      -428.391339  Gnorm:      0.001421  CPU:    0.567
  Cycle:     41 Energy:      -428.391345  Gnorm:      0.001071  CPU:    0.577
  Cycle:     42 Energy:      -428.391347  Gnorm:      0.000661  CPU:    0.584
  Cycle:     43 Energy:      -428.391348  Gnorm:      0.000533  CPU:    0.589
  Cycle:     44 Energy:      -428.391349  Gnorm:      0.000648  CPU:    0.615
  Cycle:     45 Energy:      -428.391351  Gnorm:      0.000728  CPU:    0.625
  Cycle:     46 Energy:      -428.391360  Gnorm:      0.002577  CPU:    0.633
  Cycle:     47 Energy:      -428.391395  Gnorm:      0.004066  CPU:    0.660
  Cycle:     48 Energy:      -428.391420  Gnorm:      0.002181  CPU:    0.670
  Cycle:     49 Energy:      -428.391429  Gnorm:      0.000946  CPU:    0.677
  Cycle:     50 Energy:      -428.391431  Gnorm:      0.000730  CPU:    0.686
  Cycle:     51 Energy:      -428.391434  Gnorm:      0.000674  CPU:    0.710
  Cycle:     52 Energy:      -428.391435  Gnorm:      0.000587  CPU:    0.717
  Cycle:     53 Energy:      -428.391436  Gnorm:      0.000456  CPU:    0.723
  Cycle:     54 Energy:      -428.391436  Gnorm:      0.000416  CPU:    0.736
  Cycle:     55 Energy:      -428.391436  Gnorm:      0.000391  CPU:    0.754
  Cycle:     56 Energy:      -428.391437  Gnorm:      0.000371  CPU:    0.761
  Cycle:     57 Energy:      -428.391437  Gnorm:      0.000325  CPU:    0.767


  **** Optimisation achieved ****


  Final energy =    -428.39143754 eV
  Final Gnorm  =       0.00030611

  Components of energy : 

--------------------------------------------------------------------------------
  Interatomic potentials     =           0.00000000 eV    
  Brenner potentials         =        -428.39143754 eV    
  Monopole - monopole (real) =           0.00000000 eV    
  Monopole - monopole (recip)=           0.00000000 eV    
  Monopole - monopole (total)=           0.00000000 eV    
--------------------------------------------------------------------------------
  Total lattice energy       =        -428.39143754 eV    
--------------------------------------------------------------------------------
  Total lattice energy       =          -41333.2252 kJ/(mole unit cells)
--------------------------------------------------------------------------------

  Final fractional coordinates of atoms :

--------------------------------------------------------------------------------
   No.  Atomic        x           y          z          Radius
        Label       (Frac)      (Frac)     (Frac)       (Angs) 
--------------------------------------------------------------------------------
     1  C     c     0.025100    0.587150    0.365320    0.000000
     2  C     c     0.261309    0.102354    0.107265    0.000000
     3  C     c     0.100015    0.439126    0.267318    0.000000
     4  C     c     0.879160    0.967194    0.452735    0.000000
     5  C     c     0.477446    0.916709    0.989029    0.000000
     6  C     c     0.786401    0.447903    0.220934    0.000000
     7  C     c     0.921211    0.635882    0.717449    0.000000
     8  C     c     0.810305    0.552977    0.589812    0.000000
     9  C     c     0.132258    0.380379    0.639416    0.000000
    10  C     c     0.405039    0.764152    0.117656    0.000000
    11  C     c     0.889060    0.255735    0.746288    0.000000
    12  C     c     0.571315    0.898176    0.557265    0.000000
    13  C     c     0.425509    0.240956    0.632244    0.000000
    14  C     c     0.201363    0.982980    0.798079    0.000000
    15  C     c     0.522356    0.608194    0.406469    0.000000
    16  C     c     0.988330    0.937915    0.120276    0.000000
    17  C     c     0.136866    0.821137    0.858304    0.000000
    18  C     c     0.348909    0.689241    0.663017    0.000000
    19  C     c     0.737784    0.383292    0.683312    0.000000
    20  C     c     0.044952    0.259298    0.265497    0.000000
    21  C     c     0.936129    0.174162    0.419994    0.000000
    22  C     c     0.843620    0.615228    0.415157    0.000000
    23  C     c     0.479857    0.817266    0.689543    0.000000
    24  C     c     0.794196    0.298045    0.328301    0.000000
    25  C     c     0.668957    0.159497    0.015973    0.000000
    26  C     c     0.520333    0.604314    0.088587    0.000000
    27  C     c     0.605607    0.280645    0.571221    0.000000
    28  C     c     0.634749    0.988438    0.118382    0.000000
    29  C     c     0.480273    0.915967    0.250488    0.000000
    30  C     c     0.339876    0.056193    0.923114    0.000000
    31  C     c     0.809784    0.111922    0.883154    0.000000
    32  C     c     0.865080    0.765330    0.837729    0.000000
    33  C     c     0.307632    0.395522    0.576829    0.000000
    34  C     c     0.227566    0.687263    0.123571    0.000000
    35  C     c     0.071428    0.511079    0.779251    0.000000
    36  C     c     0.326005    0.102883    0.508941    0.000000
    37  C     c     0.120327    0.741607    0.423924    0.000000
    38  C     c     0.542779    0.314193    0.956826    0.000000
    39  C     c     0.062758    0.132142    0.108646    0.000000
    40  C     c     0.769501    0.941120    0.796347    0.000000
    41  C     c     0.392900    0.557877    0.534553    0.000000
    42  C     c     0.068021    0.897154    0.498270    0.000000
    43  C     c     0.999956    0.429110    0.954569    0.000000
    44  C     c     0.239134    0.501221    0.157059    0.000000
    45  C     c     0.197266    0.671472    0.768876    0.000000
    46  C     c     0.891424    0.519393    0.081726    0.000000
    47  C     c     0.801041    0.862093    0.154607    0.000000
    48  C     c     0.984207    0.222499    0.948601    0.000000
    49  C     c     0.776048    0.805043    0.349662    0.000000
    50  C     c     0.820463    0.699659    0.025302    0.000000
    51  C     c     0.159195    0.041645    0.607585    0.000000
    52  C     c     0.477143    0.263610    0.276387    0.000000
    53  C     c     0.435239    0.399527    0.122911    0.000000
    54  C     c     0.366688    0.086682    0.292867    0.000000
    55  C     c     0.624345    0.266769    0.391975    0.000000
    56  C     c     0.422701    0.210531    0.832046    0.000000
    57  C     c     0.643820    0.454980    0.850234    0.000000
    58  C     c     0.737663    0.965677    0.602418    0.000000
    59  C     c     0.100933    0.802899    0.043371    0.000000
    60  C     c     0.617083    0.536018    0.254435    0.000000
    61  C     c     0.573525    0.808369    0.389321    0.000000
    62  C     c     0.027128    0.209298    0.602746    0.000000
    63  C     c     0.640103    0.640395    0.932488    0.000000
    64  C     c     0.588392    0.823628    0.852522    0.000000
--------------------------------------------------------------------------------

  Final internal derivatives :

--------------------------------------------------------------------------------
   No.  Atomic          a             b             c           Radius
        Label          (eV)          (eV)          (eV)        (eV/Angs)
--------------------------------------------------------------------------------
      1 C     c       0.000000      0.000000      0.000000      0.000000
      2 C     c      -0.001497      0.005643      0.002632      0.000000
      3 C     c       0.002554      0.003734      0.001672      0.000000
      4 C     c       0.001351      0.002134      0.006383      0.000000
      5 C     c       0.000257      0.006194      0.002372      0.000000
      6 C     c       0.001188      0.006834      0.003910      0.000000
      7 C     c      -0.000955      0.008373      0.002102      0.000000
      8 C     c       0.001932      0.003943      0.003012      0.000000
      9 C     c      -0.000079      0.007463      0.004147      0.000000
     10 C     c      -0.000557      0.006982      0.003768      0.000000
     11 C     c      -0.001766      0.005764      0.004824      0.000000
     12 C     c      -0.000528      0.005508      0.002957      0.000000
     13 C     c       0.000484      0.007250      0.000716      0.000000
     14 C     c       0.000323      0.005888      0.003633      0.000000
     15 C     c      -0.003092      0.006788      0.002684      0.000000
     16 C     c       0.001260      0.008440      0.003067      0.000000
     17 C     c       0.002992      0.006823      0.004104      0.000000
     18 C     c      -0.000094      0.004235      0.004505      0.000000
     19 C     c       0.000262      0.006112      0.000930      0.000000
     20 C     c      -0.002228      0.005594     -0.000079      0.000000
     21 C     c      -0.003329      0.003297      0.001542      0.000000
     22 C     c      -0.002152      0.005335      0.002609      0.000000
     23 C     c       0.000737      0.003256      0.003111      0.000000
     24 C     c      -0.000430      0.007209      0.003946      0.000000
     25 C     c      -0.001834      0.005365     -0.000294      0.000000
     26 C     c      -0.001437      0.006797      0.006389      0.000000
     27 C     c       0.000208      0.008380      0.002985      0.000000
     28 C     c      -0.001889      0.007679      0.004449      0.000000
     29 C     c       0.001263      0.005534      0.002550      0.000000
     30 C     c       0.001086      0.004250      0.002782      0.000000
     31 C     c       0.000158      0.006360      0.003289      0.000000
     32 C     c      -0.000753      0.007829      0.003256      0.000000
     33 C     c       0.000187      0.007441      0.003049      0.000000
     34 C     c       0.000374      0.004667      0.001178      0.000000
     35 C     c      -0.000675      0.008508      0.003236      0.000000
     36 C     c      -0.002623      0.008683      0.005146      0.000000
     37 C     c      -0.008487     -0.001459     -0.000098      0.000000
     38 C     c      -0.000974      0.002398      0.004745      0.000000
     39 C     c      -0.000614      0.004568      0.001505      0.000000
     40 C     c       0.002440      0.008587      0.004856      0.000000
     41 C     c       0.000157      0.006499      0.003737      0.000000
     42 C     c       0.000452      0.000221     -0.003234      0.000000
     43 C     c      -0.002061      0.006238      0.004299      0.000000
     44 C     c      -0.000778      0.005360     -0.000135      0.000000
     45 C     c       0.000603      0.006727      0.004819      0.000000
     46 C     c      -0.001450      0.004841      0.001821      0.000000
     47 C     c      -0.000154      0.004914      0.000757      0.000000
     48 C     c      -0.002874      0.007001      0.006072      0.000000
     49 C     c       0.001167      0.003929      0.007709      0.000000
     50 C     c       0.001364      0.005816      0.002823      0.000000
     51 C     c      -0.000250     -0.000204      0.002684      0.000000
     52 C     c      -0.000814      0.007766      0.001201      0.000000
     53 C     c       0.000181      0.005736      0.004954      0.000000
     54 C     c       0.003777      0.007023      0.000288      0.000000
     55 C     c      -0.000535      0.005637      0.003019      0.000000
     56 C     c      -0.001759      0.006073      0.000978      0.000000
     57 C     c       0.001483      0.007808      0.003101      0.000000
     58 C     c       0.001707      0.003044      0.004357      0.000000
     59 C     c       0.002798      0.007859      0.002882      0.000000
     60 C     c       0.000612      0.004425      0.005600      0.000000
     61 C     c       0.000044      0.000768      0.003737      0.000000
     62 C     c      -0.000520      0.005666      0.003764      0.000000
     63 C     c      -0.002425      0.009111      0.003607      0.000000
     64 C     c       0.000445      0.007377      0.002145      0.000000
--------------------------------------------------------------------------------
  Maximum abs         0.008487      0.009111      0.007709      0.000000
--------------------------------------------------------------------------------


  Time to end of optimisation =       0.7824 seconds


  Peak dynamic memory used =       1.98 MB 


  Timing analysis for GULP :

--------------------------------------------------------------------------------
  Task / Subroutine                                          Time (Seconds)
--------------------------------------------------------------------------------
  Calculation of Brenner energy and derivatives                   0.7556
--------------------------------------------------------------------------------
  Total CPU time                                                  0.7824
--------------------------------------------------------------------------------


  CIF file written as opti_1.0000.cif


  Job Finished at 23:36.17 10th August     2020                               

