********************************************************************************
*                       GENERAL UTILITY LATTICE PROGRAM                        *
*                                 Julian Gale                                  *
*                       Curtin Institute for Computation                       *
*                    School of Molecular and Life Sciences                     *
*                    Curtin University, Western Australia                      *
********************************************************************************
* Version = 5.2.0 * Last modified =  17th December 2019                        *
********************************************************************************
*  optimise     - perform optimisation run                                     *
*  conv         - constant volume calculation                                  *
*  isotropic    - only isotropic cell expansion to be allowed                  *
*  lbfgs        - use limited memory BFGS update                               *
********************************************************************************
* ASE calculation                                                              *
********************************************************************************


  Job Started  at 14:14.23 31st July       2020                               

  Number of CPUs =     1


  Total number of configurations input =      1

********************************************************************************
*  Input for Configuration =   1                                               *
********************************************************************************

  Formula = C64                                                         

  Number of irreducible atoms/shells =      64


  Total number atoms/shells =      64

  Dimensionality = 3               :  Bulk   



  Cartesian lattice vectors (Angstroms) :

        7.555986    0.000000    0.000000
        0.000000    7.555986    0.000000
        0.000000    0.000000    7.555986

  Cell parameters (Angstroms/Degrees):

  a =       7.5560    alpha =  90.0000
  b =       7.5560    beta  =  90.0000
  c =       7.5560    gamma =  90.0000

  Initial cell volume =         431.393338 Angs**3

  Temperature of configuration =   0.00     K 

  Pressure of configuration =         0.000 GPa 

  Fractional coordinates of asymmetric unit :

--------------------------------------------------------------------------------
   No.  Atomic       x           y          z         Charge      Occupancy
        Label      (Frac)      (Frac)     (Frac)        (e)         (Frac)  
--------------------------------------------------------------------------------
      1 C     c    0.035780    0.526170    0.339890     0.00000    1.000000    
      2 C     c    0.229590 *  0.062470 *  0.070680 *   0.00000    1.000000    
      3 C     c    0.086740 *  0.372580 *  0.241540 *   0.00000    1.000000    
      4 C     c    0.849890 *  0.908360 *  0.422460 *   0.00000    1.000000    
      5 C     c    0.441280 *  0.873720 *  0.947590 *   0.00000    1.000000    
      6 C     c    0.787440 *  0.429530 *  0.218620 *   0.00000    1.000000    
      7 C     c    0.901960 *  0.595110 *  0.684440 *   0.00000    1.000000    
      8 C     c    0.792250 *  0.510990 *  0.553950 *   0.00000    1.000000    
      9 C     c    0.109330 *  0.341370 *  0.597450 *   0.00000    1.000000    
     10 C     c    0.368560 *  0.720100 *  0.087270 *   0.00000    1.000000    
     11 C     c    0.859240 *  0.209770 *  0.708270 *   0.00000    1.000000    
     12 C     c    0.544100 *  0.861310 *  0.508880 *   0.00000    1.000000    
     13 C     c    0.399810 *  0.199970 *  0.585870 *   0.00000    1.000000    
     14 C     c    0.169580 *  0.946440 *  0.765170 *   0.00000    1.000000    
     15 C     c    0.498500 *  0.562480 *  0.365890 *   0.00000    1.000000    
     16 C     c    0.950810 *  0.898420 *  0.079280 *   0.00000    1.000000    
     17 C     c    0.116990 *  0.779030 *  0.831300 *   0.00000    1.000000    
     18 C     c    0.273570 *  0.686230 *  0.563680 *   0.00000    1.000000    
     19 C     c    0.707320 *  0.344640 *  0.642410 *   0.00000    1.000000    
     20 C     c    0.019610 *  0.197340 *  0.239350 *   0.00000    1.000000    
     21 C     c    0.914960 *  0.113770 *  0.392490 *   0.00000    1.000000    
     22 C     c    0.837630 *  0.564860 *  0.366020 *   0.00000    1.000000    
     23 C     c    0.432980 *  0.789650 *  0.634100 *   0.00000    1.000000    
     24 C     c    0.769260 *  0.240060 *  0.292990 *   0.00000    1.000000    
     25 C     c    0.643930 *  0.119910 *  0.979490 *   0.00000    1.000000    
     26 C     c    0.485730 *  0.554490 *  0.047940 *   0.00000    1.000000    
     27 C     c    0.577200 *  0.241410 *  0.526410 *   0.00000    1.000000    
     28 C     c    0.601420 *  0.945080 *  0.073870 *   0.00000    1.000000    
     29 C     c    0.456300 *  0.873520 *  0.209870 *   0.00000    1.000000    
     30 C     c    0.305050 *  0.022220 *  0.885080 *   0.00000    1.000000    
     31 C     c    0.783880 *  0.070020 *  0.850190 *   0.00000    1.000000    
     32 C     c    0.845150 *  0.726130 *  0.803670 *   0.00000    1.000000    
     33 C     c    0.277250 *  0.359650 *  0.526010 *   0.00000    1.000000    
     34 C     c    0.192240 *  0.651360 *  0.147020 *   0.00000    1.000000    
     35 C     c    0.059800 *  0.466190 *  0.745160 *   0.00000    1.000000    
     36 C     c    0.299400 *  0.059080 *  0.468830 *   0.00000    1.000000    
     37 C     c    0.158120 *  0.690640 *  0.365300 *   0.00000    1.000000    
     38 C     c    0.510810 *  0.270950 *  0.909310 *   0.00000    1.000000    
     39 C     c    0.030260 *  0.084690 *  0.074760 *   0.00000    1.000000    
     40 C     c    0.731350 *  0.898160 *  0.760240 *   0.00000    1.000000    
     41 C     c    0.354530 *  0.518850 *  0.467700 *   0.00000    1.000000    
     42 C     c    0.050530 *  0.856680 *  0.457030 *   0.00000    1.000000    
     43 C     c    0.032710 *  0.391020 *  0.935900 *   0.00000    1.000000    
     44 C     c    0.198350 *  0.432400 *  0.080030 *   0.00000    1.000000    
     45 C     c    0.156630 *  0.641120 *  0.718440 *   0.00000    1.000000    
     46 C     c    0.878180 *  0.482020 *  0.050850 *   0.00000    1.000000    
     47 C     c    0.770670 *  0.816050 *  0.111880 *   0.00000    1.000000    
     48 C     c    0.956570 *  0.195360 *  0.913820 *   0.00000    1.000000    
     49 C     c    0.760580 *  0.757830 *  0.309070 *   0.00000    1.000000    
     50 C     c    0.784460 *  0.652370 *  0.979350 *   0.00000    1.000000    
     51 C     c    0.134860 *  0.001610 *  0.567360 *   0.00000    1.000000    
     52 C     c    0.449340 *  0.221950 *  0.230520 *   0.00000    1.000000    
     53 C     c    0.398790 *  0.353120 *  0.068820 *   0.00000    1.000000    
     54 C     c    0.340680 *  0.047910 *  0.256940 *   0.00000    1.000000    
     55 C     c    0.598360 *  0.221420 *  0.346800 *   0.00000    1.000000    
     56 C     c    0.391290 *  0.170980 *  0.786620 *   0.00000    1.000000    
     57 C     c    0.608190 *  0.415170 *  0.804460 *   0.00000    1.000000    
     58 C     c    0.706980 *  0.925380 *  0.564050 *   0.00000    1.000000    
     59 C     c    0.070550 *  0.762920 *  0.012520 *   0.00000    1.000000    
     60 C     c    0.578950 *  0.471410 *  0.218930 *   0.00000    1.000000    
     61 C     c    0.558470 *  0.760510 *  0.348430 *   0.00000    1.000000    
     62 C     c    0.998680 *  0.176400 *  0.572620 *   0.00000    1.000000    
     63 C     c    0.602800 *  0.596610 *  0.896230 *   0.00000    1.000000    
     64 C     c    0.545760 *  0.785700 *  0.804830 *   0.00000    1.000000    
--------------------------------------------------------------------------------


  Constraints : 

--------------------------------------------------------------------------------
  Constraint no.      Unconstrained     Constrained    Coefficient    Offset
                         Variable         Variable
--------------------------------------------------------------------------------
           1              Strain 1        Strain 2       1.00000      0.0000
           2              Strain 1        Strain 3       1.00000      0.0000
--------------------------------------------------------------------------------


********************************************************************************
*  General input information                                                   *
********************************************************************************

  Species output for all configurations : 

--------------------------------------------------------------------------------
  Species    Type    Atomic    Atomic    Charge       Radii (Angs)     Library
                     Number     Mass       (e)     Cova   Ionic  VDW   Symbol
--------------------------------------------------------------------------------
    C        Core        6      12.01   0.000000   0.770  0.000  1.530          
--------------------------------------------------------------------------------


  Lattice summation method               =    Ewald          (3-D)
                                         =    Parry          (2-D)
                                         =    Saunders et al (1-D)
  Accuracy factor for lattice sums       =   12.000


  Analytic derivatives to be used

  Time limit = Infinity

  Maximum range for interatomic potentials =    100000.000000 Angstroms

  Brenner et al 2002 potential to be used with explicit splines for P


********************************************************************************
*  Output for configuration   1                                                *
********************************************************************************


  Components of energy : 

--------------------------------------------------------------------------------
  Interatomic potentials     =           0.00000000 eV    
  Brenner potentials         =        -422.08160889 eV    
  Monopole - monopole (real) =           0.00000000 eV    
  Monopole - monopole (recip)=           0.00000000 eV    
  Monopole - monopole (total)=           0.00000000 eV    
--------------------------------------------------------------------------------
  Total lattice energy       =        -422.08160889 eV    
--------------------------------------------------------------------------------
  Total lattice energy       =          -40724.4231 kJ/(mole unit cells)
--------------------------------------------------------------------------------


  Number of variables =      189

  Maximum number of calculations  =          2000
  Maximum Hessian update interval =            10
  Maximum step size               =   1.000000000
  Maximum parameter tolerance     =   0.000010000
  Maximum function  tolerance     =   0.000010000
  Maximum gradient  tolerance     =   0.001000000
  Maximum gradient  component     =   0.010000000

  Maximum LM gradient tolerance   =   0.900000000
  Symmetry not applied to optimisation

  Limited Memory BFGS to be used of order   10

  BFGS hessian update to be used

  Lower half triangular hessian to be used

  Start of bulk optimisation :

  Cycle:      0 Energy:      -422.081609  Gnorm:      0.465587  CPU:    0.028
  Cycle:      1 Energy:      -422.243179  Gnorm:      0.390189  CPU:    0.071
  Cycle:      2 Energy:      -422.731481  Gnorm:      0.269025  CPU:    0.095
  Cycle:      3 Energy:      -422.874409  Gnorm:      0.176598  CPU:    0.105
  Cycle:      4 Energy:      -422.936750  Gnorm:      0.133221  CPU:    0.111
  Cycle:      5 Energy:      -423.017897  Gnorm:      0.215804  CPU:    0.135
  Cycle:      6 Energy:      -423.071844  Gnorm:      0.092612  CPU:    0.174
  Cycle:      7 Energy:      -423.093840  Gnorm:      0.077968  CPU:    0.207
  Cycle:      8 Energy:      -423.126229  Gnorm:      0.078828  CPU:    0.219
  Cycle:      9 Energy:      -423.155609  Gnorm:      0.075515  CPU:    0.225
  Cycle:     10 Energy:      -423.176101  Gnorm:      0.077186  CPU:    0.249
  Cycle:     11 Energy:      -423.191797  Gnorm:      0.040796  CPU:    0.272
  Cycle:     12 Energy:      -423.204237  Gnorm:      0.048734  CPU:    0.287
  Cycle:     13 Energy:      -423.215150  Gnorm:      0.048160  CPU:    0.294
  Cycle:     14 Energy:      -423.225238  Gnorm:      0.081996  CPU:    0.315
  Cycle:     15 Energy:      -423.235481  Gnorm:      0.045946  CPU:    0.328
  Cycle:     16 Energy:      -423.239904  Gnorm:      0.025035  CPU:    0.355
  Cycle:     17 Energy:      -423.243943  Gnorm:      0.025139  CPU:    0.382
  Cycle:     18 Energy:      -423.248327  Gnorm:      0.029222  CPU:    0.391
  Cycle:     19 Energy:      -423.249087  Gnorm:      0.053042  CPU:    0.397
  Cycle:     20 Energy:      -423.253464  Gnorm:      0.014616  CPU:    0.422
  Cycle:     21 Energy:      -423.254394  Gnorm:      0.013533  CPU:    0.431
  Cycle:     22 Energy:      -423.255561  Gnorm:      0.014687  CPU:    0.437
  Cycle:     23 Energy:      -423.257232  Gnorm:      0.019917  CPU:    0.463
  Cycle:     24 Energy:      -423.258278  Gnorm:      0.019028  CPU:    0.475
  Cycle:     25 Energy:      -423.259141  Gnorm:      0.010444  CPU:    0.496
  Cycle:     26 Energy:      -423.259788  Gnorm:      0.011177  CPU:    0.508
  Cycle:     27 Energy:      -423.260746  Gnorm:      0.012613  CPU:    0.515
  Cycle:     28 Energy:      -423.261656  Gnorm:      0.029230  CPU:    0.537
  Cycle:     29 Energy:      -423.262933  Gnorm:      0.013207  CPU:    0.549
  Cycle:     30 Energy:      -423.263624  Gnorm:      0.010275  CPU:    0.573
  Cycle:     31 Energy:      -423.264726  Gnorm:      0.012944  CPU:    0.582
  Cycle:     32 Energy:      -423.265949  Gnorm:      0.016808  CPU:    0.588
  Cycle:     33 Energy:      -423.267373  Gnorm:      0.016094  CPU:    0.614
  Cycle:     34 Energy:      -423.268913  Gnorm:      0.013758  CPU:    0.622
  Cycle:     35 Energy:      -423.270326  Gnorm:      0.014245  CPU:    0.630
  Cycle:     36 Energy:      -423.271965  Gnorm:      0.021380  CPU:    0.654
  Cycle:     37 Energy:      -423.273292  Gnorm:      0.021136  CPU:    0.662
  Cycle:     38 Energy:      -423.274371  Gnorm:      0.012549  CPU:    0.673
  Cycle:     39 Energy:      -423.275555  Gnorm:      0.014078  CPU:    0.696
  Cycle:     40 Energy:      -423.276769  Gnorm:      0.014200  CPU:    0.703
  Cycle:     41 Energy:      -423.277812  Gnorm:      0.027521  CPU:    0.719
  Cycle:     42 Energy:      -423.278903  Gnorm:      0.013394  CPU:    0.737
  Cycle:     43 Energy:      -423.279347  Gnorm:      0.009220  CPU:    0.744
  Cycle:     44 Energy:      -423.279789  Gnorm:      0.010165  CPU:    0.762
  Cycle:     45 Energy:      -423.280455  Gnorm:      0.013619  CPU:    0.777
  Cycle:     46 Energy:      -423.280754  Gnorm:      0.019832  CPU:    0.784
  Cycle:     47 Energy:      -423.281287  Gnorm:      0.007065  CPU:    0.803
  Cycle:     48 Energy:      -423.281489  Gnorm:      0.006274  CPU:    0.818
  Cycle:     49 Energy:      -423.281755  Gnorm:      0.007818  CPU:    0.825
  Cycle:     50 Energy:      -423.282131  Gnorm:      0.009149  CPU:    0.847
  Cycle:     51 Energy:      -423.282271  Gnorm:      0.014102  CPU:    0.875
  Cycle:     52 Energy:      -423.282534  Gnorm:      0.004895  CPU:    0.883
  Cycle:     53 Energy:      -423.282638  Gnorm:      0.004811  CPU:    0.895
  Cycle:     54 Energy:      -423.282770  Gnorm:      0.006337  CPU:    0.916
  Cycle:     55 Energy:      -423.282986  Gnorm:      0.007311  CPU:    0.923
  Cycle:     56 Energy:      -423.283099  Gnorm:      0.007897  CPU:    0.952
  Cycle:     57 Energy:      -423.283242  Gnorm:      0.003908  CPU:    0.961
  Cycle:     58 Energy:      -423.283340  Gnorm:      0.003628  CPU:    0.967
  Cycle:     59 Energy:      -423.283457  Gnorm:      0.004958  CPU:    0.992
  Cycle:     60 Energy:      -423.283566  Gnorm:      0.009495  CPU:    1.001
  Cycle:     61 Energy:      -423.283710  Gnorm:      0.004730  CPU:    1.007
  Cycle:     62 Energy:      -423.283825  Gnorm:      0.004430  CPU:    1.033
  Cycle:     63 Energy:      -423.283931  Gnorm:      0.004824  CPU:    1.042
  Cycle:     64 Energy:      -423.284162  Gnorm:      0.006614  CPU:    1.050
  Cycle:     65 Energy:      -423.284320  Gnorm:      0.007117  CPU:    1.079
  Cycle:     66 Energy:      -423.284537  Gnorm:      0.004931  CPU:    1.086
  Cycle:     67 Energy:      -423.284761  Gnorm:      0.005496  CPU:    1.109
  Cycle:     68 Energy:      -423.285033  Gnorm:      0.008770  CPU:    1.119
  Cycle:     69 Energy:      -423.285279  Gnorm:      0.006705  CPU:    1.126
  Cycle:     70 Energy:      -423.285485  Gnorm:      0.006149  CPU:    1.151
  Cycle:     71 Energy:      -423.285685  Gnorm:      0.006428  CPU:    1.160
  Cycle:     72 Energy:      -423.285854  Gnorm:      0.005132  CPU:    1.167
  Cycle:     73 Energy:      -423.286077  Gnorm:      0.005120  CPU:    1.192
  Cycle:     74 Energy:      -423.286217  Gnorm:      0.006369  CPU:    1.201
  Cycle:     75 Energy:      -423.286338  Gnorm:      0.006042  CPU:    1.207
  Cycle:     76 Energy:      -423.286478  Gnorm:      0.004510  CPU:    1.233
  Cycle:     77 Energy:      -423.286629  Gnorm:      0.004856  CPU:    1.241
  Cycle:     78 Energy:      -423.286722  Gnorm:      0.009732  CPU:    1.248
  Cycle:     79 Energy:      -423.286857  Gnorm:      0.004408  CPU:    1.274
  Cycle:     80 Energy:      -423.286907  Gnorm:      0.007227  CPU:    1.282
  Cycle:     81 Energy:      -423.286981  Gnorm:      0.003950  CPU:    1.292
  Cycle:     82 Energy:      -423.287041  Gnorm:      0.002995  CPU:    1.315
  Cycle:     83 Energy:      -423.287141  Gnorm:      0.002995  CPU:    1.323
  Cycle:     84 Energy:      -423.287214  Gnorm:      0.004443  CPU:    1.336
  Cycle:     85 Energy:      -423.287258  Gnorm:      0.005731  CPU:    1.371
  Cycle:     86 Energy:      -423.287308  Gnorm:      0.002867  CPU:    1.381
  Cycle:     87 Energy:      -423.287343  Gnorm:      0.002527  CPU:    1.396
  Cycle:     88 Energy:      -423.287372  Gnorm:      0.002916  CPU:    1.413
  Cycle:     89 Energy:      -423.287423  Gnorm:      0.002703  CPU:    1.420
  Cycle:     90 Energy:      -423.287442  Gnorm:      0.003761  CPU:    1.449
  Cycle:     91 Energy:      -423.287470  Gnorm:      0.002323  CPU:    1.467
  Cycle:     92 Energy:      -423.287500  Gnorm:      0.002150  CPU:    1.483
  Cycle:     93 Energy:      -423.287541  Gnorm:      0.002580  CPU:    1.490
  Cycle:     94 Energy:      -423.287565  Gnorm:      0.004360  CPU:    1.520
  Cycle:     95 Energy:      -423.287603  Gnorm:      0.002699  CPU:    1.528
  Cycle:     96 Energy:      -423.287646  Gnorm:      0.002071  CPU:    1.540
  Cycle:     97 Energy:      -423.287686  Gnorm:      0.002227  CPU:    1.561
  Cycle:     98 Energy:      -423.287701  Gnorm:      0.006483  CPU:    1.583
  Cycle:     99 Energy:      -423.287748  Gnorm:      0.002442  CPU:    1.594
  Cycle:    100 Energy:      -423.287770  Gnorm:      0.002114  CPU:    1.601
  Cycle:    101 Energy:      -423.287794  Gnorm:      0.002923  CPU:    1.626
  Cycle:    102 Energy:      -423.287831  Gnorm:      0.003033  CPU:    1.635
  Cycle:    103 Energy:      -423.287851  Gnorm:      0.004770  CPU:    1.656
  Cycle:    104 Energy:      -423.287896  Gnorm:      0.002570  CPU:    1.672
  Cycle:    105 Energy:      -423.287932  Gnorm:      0.001704  CPU:    1.679
  Cycle:    106 Energy:      -423.287969  Gnorm:      0.001965  CPU:    1.699
  Cycle:    107 Energy:      -423.287986  Gnorm:      0.003968  CPU:    1.713
  Cycle:    108 Energy:      -423.288005  Gnorm:      0.001535  CPU:    1.720
  Cycle:    109 Energy:      -423.288013  Gnorm:      0.001074  CPU:    1.742
  Cycle:    110 Energy:      -423.288023  Gnorm:      0.001329  CPU:    1.754
  Cycle:    111 Energy:      -423.288030  Gnorm:      0.001921  CPU:    1.760
  Cycle:    112 Energy:      -423.288036  Gnorm:      0.000944  CPU:    1.784
  Cycle:    113 Energy:      -423.288039  Gnorm:      0.000732  CPU:    1.794
  Cycle:    114 Energy:      -423.288040  Gnorm:      0.000872  CPU:    1.801
  Cycle:    115 Energy:      -423.288042  Gnorm:      0.000892  CPU:    1.831
  Cycle:    116 Energy:      -423.288043  Gnorm:      0.000723  CPU:    1.865
  Cycle:    117 Energy:      -423.288048  Gnorm:      0.000648  CPU:    1.875
  Cycle:    118 Energy:      -423.288051  Gnorm:      0.001442  CPU:    1.881
  Cycle:    119 Energy:      -423.288054  Gnorm:      0.000393  CPU:    1.907
  Cycle:    120 Energy:      -423.288055  Gnorm:      0.000380  CPU:    1.916
  Cycle:    121 Energy:      -423.288056  Gnorm:      0.000438  CPU:    1.922
  Cycle:    122 Energy:      -423.288057  Gnorm:      0.000466  CPU:    1.948
  Cycle:    123 Energy:      -423.288058  Gnorm:      0.000457  CPU:    1.960
  Cycle:    124 Energy:      -423.288058  Gnorm:      0.000402  CPU:    1.990
  Cycle:    125 Energy:      -423.288058  Gnorm:      0.000625  CPU:    1.997
  Cycle:    126 Energy:      -423.288058  Gnorm:      0.000320  CPU:    2.025
  Cycle:    127 Energy:      -423.288059  Gnorm:      0.000266  CPU:    2.035
  Cycle:    128 Energy:      -423.288060  Gnorm:      0.000301  CPU:    2.041
  Cycle:    129 Energy:      -423.288060  Gnorm:      0.000612  CPU:    2.067
  Cycle:    130 Energy:      -423.288061  Gnorm:      0.000232  CPU:    2.093
  Cycle:    131 Energy:      -423.288062  Gnorm:      0.000180  CPU:    2.104
  Cycle:    132 Energy:      -423.288062  Gnorm:      0.000207  CPU:    2.110
  Cycle:    133 Energy:      -423.288062  Gnorm:      0.000205  CPU:    2.135
  Cycle:    134 Energy:      -423.288062  Gnorm:      0.000205  CPU:    2.605
  Cycle:    135 Energy:      -423.288062  Gnorm:      0.000205  CPU:    2.674
  Cycle:    136 Energy:      -423.288062  Gnorm:      0.000205  CPU:    3.103
  Cycle:    137 Energy:      -423.288062  Gnorm:      0.000205  CPU:    3.150


  **** Optimisation achieved ****


  Final energy =    -423.28806230 eV
  Final Gnorm  =       0.00014532

  Components of energy : 

--------------------------------------------------------------------------------
  Interatomic potentials     =           0.00000000 eV    
  Brenner potentials         =        -423.28806230 eV    
  Monopole - monopole (real) =           0.00000000 eV    
  Monopole - monopole (recip)=           0.00000000 eV    
  Monopole - monopole (total)=           0.00000000 eV    
--------------------------------------------------------------------------------
  Total lattice energy       =        -423.28806230 eV    
--------------------------------------------------------------------------------
  Total lattice energy       =          -40840.8275 kJ/(mole unit cells)
--------------------------------------------------------------------------------

  Final fractional coordinates of atoms :

--------------------------------------------------------------------------------
   No.  Atomic        x           y          z          Radius
        Label       (Frac)      (Frac)     (Frac)       (Angs) 
--------------------------------------------------------------------------------
     1  C     c     0.035780    0.526170    0.339890    0.000000
     2  C     c     0.239751    0.057707    0.073916    0.000000
     3  C     c     0.087313    0.374332    0.242940    0.000000
     4  C     c     0.859895    0.908648    0.418340    0.000000
     5  C     c     0.447198    0.862412    0.952401    0.000000
     6  C     c     0.783391    0.426567    0.217411    0.000000
     7  C     c     0.905474    0.584097    0.686159    0.000000
     8  C     c     0.795393    0.499887    0.555498    0.000000
     9  C     c     0.115357    0.328634    0.610113    0.000000
    10  C     c     0.370735    0.710412    0.090997    0.000000
    11  C     c     0.867931    0.204762    0.714256    0.000000
    12  C     c     0.549327    0.852993    0.514643    0.000000
    13  C     c     0.404563    0.189579    0.592428    0.000000
    14  C     c     0.174969    0.931088    0.772360    0.000000
    15  C     c     0.501815    0.558910    0.368424    0.000000
    16  C     c     0.959223    0.895947    0.085313    0.000000
    17  C     c     0.123583    0.766243    0.841366    0.000000
    18  C     c     0.279455    0.669030    0.571191    0.000000
    19  C     c     0.716461    0.331158    0.645418    0.000000
    20  C     c     0.027015    0.198157    0.240395    0.000000
    21  C     c     0.915061    0.116366    0.391970    0.000000
    22  C     c     0.836010    0.561845    0.366577    0.000000
    23  C     c     0.440182    0.775765    0.641437    0.000000
    24  C     c     0.774094    0.240521    0.289307    0.000000
    25  C     c     0.648486    0.110615    0.983680    0.000000
    26  C     c     0.483548    0.547720    0.049518    0.000000
    27  C     c     0.584454    0.229090    0.528476    0.000000
    28  C     c     0.608388    0.936357    0.078793    0.000000
    29  C     c     0.459635    0.862926    0.214849    0.000000
    30  C     c     0.315538    0.007167    0.889842    0.000000
    31  C     c     0.792070    0.060765    0.851920    0.000000
    32  C     c     0.846729    0.717380    0.801680    0.000000
    33  C     c     0.290479    0.348369    0.545029    0.000000
    34  C     c     0.190140    0.642526    0.159329    0.000000
    35  C     c     0.057706    0.457473    0.751196    0.000000
    36  C     c     0.307184    0.046799    0.477483    0.000000
    37  C     c     0.160978    0.687508    0.379474    0.000000
    38  C     c     0.519746    0.259029    0.915817    0.000000
    39  C     c     0.039562    0.082880    0.076312    0.000000
    40  C     c     0.741675    0.888489    0.761722    0.000000
    41  C     c     0.365517    0.505867    0.481818    0.000000
    42  C     c     0.051565    0.847884    0.462902    0.000000
    43  C     c     0.030290    0.387082    0.941489    0.000000
    44  C     c     0.202162    0.430975    0.079919    0.000000
    45  C     c     0.162267    0.628767    0.728908    0.000000
    46  C     c     0.877384    0.482889    0.049497    0.000000
    47  C     c     0.775846    0.811725    0.113509    0.000000
    48  C     c     0.966542    0.187599    0.917347    0.000000
    49  C     c     0.763553    0.753616    0.310262    0.000000
    50  C     c     0.788382    0.649057    0.982407    0.000000
    51  C     c     0.138903    0.989593    0.578862    0.000000
    52  C     c     0.449053    0.211748    0.233772    0.000000
    53  C     c     0.403039    0.340332    0.072820    0.000000
    54  C     c     0.343259    0.031307    0.262331    0.000000
    55  C     c     0.600443    0.215690    0.346725    0.000000
    56  C     c     0.402446    0.154685    0.791713    0.000000
    57  C     c     0.617445    0.402550    0.810283    0.000000
    58  C     c     0.716129    0.915479    0.566797    0.000000
    59  C     c     0.080867    0.760546    0.025276    0.000000
    60  C     c     0.579183    0.473194    0.216792    0.000000
    61  C     c     0.559074    0.755744    0.350633    0.000000
    62  C     c     0.007497    0.157832    0.572880    0.000000
    63  C     c     0.606138    0.587455    0.894740    0.000000
    64  C     c     0.553309    0.771935    0.808852    0.000000
--------------------------------------------------------------------------------

  Final internal derivatives :

--------------------------------------------------------------------------------
   No.  Atomic          a             b             c           Radius
        Label          (eV)          (eV)          (eV)        (eV/Angs)
--------------------------------------------------------------------------------
      1 C     c       0.000000      0.000000      0.000000      0.000000
      2 C     c      -0.003244      0.001806     -0.001524      0.000000
      3 C     c       0.003368     -0.003296      0.002660      0.000000
      4 C     c      -0.000352      0.000083      0.001974      0.000000
      5 C     c      -0.001420      0.000077      0.003323      0.000000
      6 C     c       0.000547      0.002863      0.001801      0.000000
      7 C     c       0.002529      0.001527      0.001967      0.000000
      8 C     c      -0.000573      0.002631     -0.000353      0.000000
      9 C     c      -0.001981      0.000328      0.002305      0.000000
     10 C     c       0.000557      0.002739     -0.000605      0.000000
     11 C     c       0.000578      0.002138      0.000926      0.000000
     12 C     c       0.001018      0.002065      0.000634      0.000000
     13 C     c      -0.002718      0.001845      0.000950      0.000000
     14 C     c      -0.005906      0.000545     -0.000357      0.000000
     15 C     c      -0.000539      0.001432      0.001804      0.000000
     16 C     c       0.001008      0.000217      0.001929      0.000000
     17 C     c      -0.001368     -0.000220      0.000655      0.000000
     18 C     c      -0.001417      0.001583      0.000863      0.000000
     19 C     c      -0.000778      0.004624     -0.002141      0.000000
     20 C     c      -0.003238     -0.002594      0.000822      0.000000
     21 C     c      -0.001769     -0.001791      0.001863      0.000000
     22 C     c       0.001050      0.000727      0.002914      0.000000
     23 C     c       0.001460      0.002295      0.000895      0.000000
     24 C     c      -0.001305      0.001737      0.000378      0.000000
     25 C     c      -0.000977     -0.000797      0.000024      0.000000
     26 C     c      -0.002918      0.000824     -0.000900      0.000000
     27 C     c      -0.002234      0.002642      0.000061      0.000000
     28 C     c      -0.002362      0.001053     -0.003311      0.000000
     29 C     c       0.000308      0.001137      0.002143      0.000000
     30 C     c      -0.004083     -0.000685     -0.000984      0.000000
     31 C     c      -0.001060      0.000094      0.000702      0.000000
     32 C     c      -0.002188     -0.000194      0.001839      0.000000
     33 C     c      -0.002327      0.002310      0.000902      0.000000
     34 C     c       0.001460     -0.005743     -0.003603      0.000000
     35 C     c      -0.002566      0.000627      0.001308      0.000000
     36 C     c      -0.003641      0.002689     -0.001984      0.000000
     37 C     c       0.000597      0.001204      0.002574      0.000000
     38 C     c      -0.001042     -0.001625      0.001605      0.000000
     39 C     c      -0.003580     -0.001264      0.000886      0.000000
     40 C     c      -0.000501      0.000981     -0.000754      0.000000
     41 C     c      -0.001837      0.001811      0.000375      0.000000
     42 C     c       0.002298      0.001799     -0.002348      0.000000
     43 C     c       0.003083      0.001262      0.004896      0.000000
     44 C     c      -0.003282      0.001450     -0.001709      0.000000
     45 C     c      -0.004622     -0.001540      0.001147      0.000000
     46 C     c      -0.001215      0.000304      0.000579      0.000000
     47 C     c       0.003392      0.000806      0.001534      0.000000
     48 C     c      -0.002222     -0.000472      0.002138      0.000000
     49 C     c      -0.002782      0.004250      0.000641      0.000000
     50 C     c      -0.000864      0.001047      0.003505      0.000000
     51 C     c      -0.001474      0.001295      0.000262      0.000000
     52 C     c       0.000458     -0.002484      0.000101      0.000000
     53 C     c      -0.002606      0.000534      0.002479      0.000000
     54 C     c       0.004115      0.000104      0.001145      0.000000
     55 C     c      -0.001035      0.000084      0.000179      0.000000
     56 C     c      -0.004735      0.001214      0.001621      0.000000
     57 C     c      -0.001083      0.000258      0.000190      0.000000
     58 C     c       0.000415      0.004242     -0.000123      0.000000
     59 C     c       0.000809      0.001280      0.000577      0.000000
     60 C     c      -0.001912      0.002325     -0.000001      0.000000
     61 C     c      -0.001164      0.000969      0.001522      0.000000
     62 C     c       0.000475     -0.002403      0.000339      0.000000
     63 C     c      -0.001664      0.001371     -0.000462      0.000000
     64 C     c      -0.000550      0.002355      0.001970      0.000000
--------------------------------------------------------------------------------
  Maximum abs         0.005906      0.005743      0.004896      0.000000
--------------------------------------------------------------------------------


  Time to end of optimisation =       3.1937 seconds


  Peak dynamic memory used =       2.01 MB 


  Timing analysis for GULP :

--------------------------------------------------------------------------------
  Task / Subroutine                                          Time (Seconds)
--------------------------------------------------------------------------------
  Calculation of Brenner energy and derivatives                   3.1278
--------------------------------------------------------------------------------
  Total CPU time                                                  3.1939
--------------------------------------------------------------------------------


  CIF file written as opti_1.0000.cif


  Job Finished at 14:14.26 31st July       2020                               

