********************************************************************************
*                       GENERAL UTILITY LATTICE PROGRAM                        *
*                                 Julian Gale                                  *
*                       Curtin Institute for Computation                       *
*                    School of Molecular and Life Sciences                     *
*                    Curtin University, Western Australia                      *
********************************************************************************
* Version = 5.2.0 * Last modified =  17th December 2019                        *
********************************************************************************
*  optimise     - perform optimisation run                                     *
*  conv         - constant volume calculation                                  *
*  isotropic    - only isotropic cell expansion to be allowed                  *
*  lbfgs        - use limited memory BFGS update                               *
********************************************************************************
* ASE calculation                                                              *
********************************************************************************


  Job Started  at 14:18.48 31st July       2020                               

  Number of CPUs =     1


  Total number of configurations input =      1

********************************************************************************
*  Input for Configuration =   1                                               *
********************************************************************************

  Formula = C64                                                         

  Number of irreducible atoms/shells =      64


  Total number atoms/shells =      64

  Dimensionality = 3               :  Bulk   



  Cartesian lattice vectors (Angstroms) :

        7.630803    0.000000    0.000000
        0.000000    7.630803    0.000000
        0.000000    0.000000    7.630803

  Cell parameters (Angstroms/Degrees):

  a =       7.6308    alpha =  90.0000
  b =       7.6308    beta  =  90.0000
  c =       7.6308    gamma =  90.0000

  Initial cell volume =         444.335206 Angs**3

  Temperature of configuration =   0.00     K 

  Pressure of configuration =         0.000 GPa 

  Fractional coordinates of asymmetric unit :

--------------------------------------------------------------------------------
   No.  Atomic       x           y          z         Charge      Occupancy
        Label      (Frac)      (Frac)     (Frac)        (e)         (Frac)  
--------------------------------------------------------------------------------
      1 C     c    0.035780    0.526170    0.339890     0.00000    1.000000    
      2 C     c    0.229590 *  0.062470 *  0.070680 *   0.00000    1.000000    
      3 C     c    0.086740 *  0.372580 *  0.241540 *   0.00000    1.000000    
      4 C     c    0.849890 *  0.908360 *  0.422460 *   0.00000    1.000000    
      5 C     c    0.441280 *  0.873720 *  0.947590 *   0.00000    1.000000    
      6 C     c    0.787440 *  0.429530 *  0.218620 *   0.00000    1.000000    
      7 C     c    0.901960 *  0.595110 *  0.684440 *   0.00000    1.000000    
      8 C     c    0.792250 *  0.510990 *  0.553950 *   0.00000    1.000000    
      9 C     c    0.109330 *  0.341370 *  0.597450 *   0.00000    1.000000    
     10 C     c    0.368560 *  0.720100 *  0.087270 *   0.00000    1.000000    
     11 C     c    0.859240 *  0.209770 *  0.708270 *   0.00000    1.000000    
     12 C     c    0.544100 *  0.861310 *  0.508880 *   0.00000    1.000000    
     13 C     c    0.399810 *  0.199970 *  0.585870 *   0.00000    1.000000    
     14 C     c    0.169580 *  0.946440 *  0.765170 *   0.00000    1.000000    
     15 C     c    0.498500 *  0.562480 *  0.365890 *   0.00000    1.000000    
     16 C     c    0.950810 *  0.898420 *  0.079280 *   0.00000    1.000000    
     17 C     c    0.116990 *  0.779030 *  0.831300 *   0.00000    1.000000    
     18 C     c    0.273570 *  0.686230 *  0.563680 *   0.00000    1.000000    
     19 C     c    0.707320 *  0.344640 *  0.642410 *   0.00000    1.000000    
     20 C     c    0.019610 *  0.197340 *  0.239350 *   0.00000    1.000000    
     21 C     c    0.914960 *  0.113770 *  0.392490 *   0.00000    1.000000    
     22 C     c    0.837630 *  0.564860 *  0.366020 *   0.00000    1.000000    
     23 C     c    0.432980 *  0.789650 *  0.634100 *   0.00000    1.000000    
     24 C     c    0.769260 *  0.240060 *  0.292990 *   0.00000    1.000000    
     25 C     c    0.643930 *  0.119910 *  0.979490 *   0.00000    1.000000    
     26 C     c    0.485730 *  0.554490 *  0.047940 *   0.00000    1.000000    
     27 C     c    0.577200 *  0.241410 *  0.526410 *   0.00000    1.000000    
     28 C     c    0.601420 *  0.945080 *  0.073870 *   0.00000    1.000000    
     29 C     c    0.456300 *  0.873520 *  0.209870 *   0.00000    1.000000    
     30 C     c    0.305050 *  0.022220 *  0.885080 *   0.00000    1.000000    
     31 C     c    0.783880 *  0.070020 *  0.850190 *   0.00000    1.000000    
     32 C     c    0.845150 *  0.726130 *  0.803670 *   0.00000    1.000000    
     33 C     c    0.277250 *  0.359650 *  0.526010 *   0.00000    1.000000    
     34 C     c    0.192240 *  0.651360 *  0.147020 *   0.00000    1.000000    
     35 C     c    0.059800 *  0.466190 *  0.745160 *   0.00000    1.000000    
     36 C     c    0.299400 *  0.059080 *  0.468830 *   0.00000    1.000000    
     37 C     c    0.158120 *  0.690640 *  0.365300 *   0.00000    1.000000    
     38 C     c    0.510810 *  0.270950 *  0.909310 *   0.00000    1.000000    
     39 C     c    0.030260 *  0.084690 *  0.074760 *   0.00000    1.000000    
     40 C     c    0.731350 *  0.898160 *  0.760240 *   0.00000    1.000000    
     41 C     c    0.354530 *  0.518850 *  0.467700 *   0.00000    1.000000    
     42 C     c    0.050530 *  0.856680 *  0.457030 *   0.00000    1.000000    
     43 C     c    0.032710 *  0.391020 *  0.935900 *   0.00000    1.000000    
     44 C     c    0.198350 *  0.432400 *  0.080030 *   0.00000    1.000000    
     45 C     c    0.156630 *  0.641120 *  0.718440 *   0.00000    1.000000    
     46 C     c    0.878180 *  0.482020 *  0.050850 *   0.00000    1.000000    
     47 C     c    0.770670 *  0.816050 *  0.111880 *   0.00000    1.000000    
     48 C     c    0.956570 *  0.195360 *  0.913820 *   0.00000    1.000000    
     49 C     c    0.760580 *  0.757830 *  0.309070 *   0.00000    1.000000    
     50 C     c    0.784460 *  0.652370 *  0.979350 *   0.00000    1.000000    
     51 C     c    0.134860 *  0.001610 *  0.567360 *   0.00000    1.000000    
     52 C     c    0.449340 *  0.221950 *  0.230520 *   0.00000    1.000000    
     53 C     c    0.398790 *  0.353120 *  0.068820 *   0.00000    1.000000    
     54 C     c    0.340680 *  0.047910 *  0.256940 *   0.00000    1.000000    
     55 C     c    0.598360 *  0.221420 *  0.346800 *   0.00000    1.000000    
     56 C     c    0.391290 *  0.170980 *  0.786620 *   0.00000    1.000000    
     57 C     c    0.608190 *  0.415170 *  0.804460 *   0.00000    1.000000    
     58 C     c    0.706980 *  0.925380 *  0.564050 *   0.00000    1.000000    
     59 C     c    0.070550 *  0.762920 *  0.012520 *   0.00000    1.000000    
     60 C     c    0.578950 *  0.471410 *  0.218930 *   0.00000    1.000000    
     61 C     c    0.558470 *  0.760510 *  0.348430 *   0.00000    1.000000    
     62 C     c    0.998680 *  0.176400 *  0.572620 *   0.00000    1.000000    
     63 C     c    0.602800 *  0.596610 *  0.896230 *   0.00000    1.000000    
     64 C     c    0.545760 *  0.785700 *  0.804830 *   0.00000    1.000000    
--------------------------------------------------------------------------------


  Constraints : 

--------------------------------------------------------------------------------
  Constraint no.      Unconstrained     Constrained    Coefficient    Offset
                         Variable         Variable
--------------------------------------------------------------------------------
           1              Strain 1        Strain 2       1.00000      0.0000
           2              Strain 1        Strain 3       1.00000      0.0000
--------------------------------------------------------------------------------


********************************************************************************
*  General input information                                                   *
********************************************************************************

  Species output for all configurations : 

--------------------------------------------------------------------------------
  Species    Type    Atomic    Atomic    Charge       Radii (Angs)     Library
                     Number     Mass       (e)     Cova   Ionic  VDW   Symbol
--------------------------------------------------------------------------------
    C        Core        6      12.01   0.000000   0.770  0.000  1.530          
--------------------------------------------------------------------------------


  Lattice summation method               =    Ewald          (3-D)
                                         =    Parry          (2-D)
                                         =    Saunders et al (1-D)
  Accuracy factor for lattice sums       =   12.000


  Analytic derivatives to be used

  Time limit = Infinity

  Maximum range for interatomic potentials =    100000.000000 Angstroms

  Brenner et al 2002 potential to be used with explicit splines for P


********************************************************************************
*  Output for configuration   1                                                *
********************************************************************************


  Components of energy : 

--------------------------------------------------------------------------------
  Interatomic potentials     =           0.00000000 eV    
  Brenner potentials         =        -421.58190953 eV    
  Monopole - monopole (real) =           0.00000000 eV    
  Monopole - monopole (recip)=           0.00000000 eV    
  Monopole - monopole (total)=           0.00000000 eV    
--------------------------------------------------------------------------------
  Total lattice energy       =        -421.58190953 eV    
--------------------------------------------------------------------------------
  Total lattice energy       =          -40676.2098 kJ/(mole unit cells)
--------------------------------------------------------------------------------


  Number of variables =      189

  Maximum number of calculations  =          2000
  Maximum Hessian update interval =            10
  Maximum step size               =   1.000000000
  Maximum parameter tolerance     =   0.000010000
  Maximum function  tolerance     =   0.000010000
  Maximum gradient  tolerance     =   0.001000000
  Maximum gradient  component     =   0.010000000

  Maximum LM gradient tolerance   =   0.900000000
  Symmetry not applied to optimisation

  Limited Memory BFGS to be used of order   10

  BFGS hessian update to be used

  Lower half triangular hessian to be used

  Start of bulk optimisation :

  Cycle:      0 Energy:      -421.581910  Gnorm:      0.445430  CPU:    0.024
  Cycle:      1 Energy:      -421.759830  Gnorm:      0.376107  CPU:    0.051
  Cycle:      2 Energy:      -422.201172  Gnorm:      0.386434  CPU:    0.076
  Cycle:      3 Energy:      -422.354587  Gnorm:      0.208574  CPU:    0.085
  Cycle:      4 Energy:      -422.420871  Gnorm:      0.169792  CPU:    0.091
  Cycle:      5 Energy:      -422.498871  Gnorm:      0.133579  CPU:    0.099
  Cycle:      6 Energy:      -422.561556  Gnorm:      0.105336  CPU:    0.107
  Cycle:      7 Energy:      -422.624534  Gnorm:      0.203961  CPU:    0.130
  Cycle:      8 Energy:      -422.685127  Gnorm:      0.084769  CPU:    0.137
  Cycle:      9 Energy:      -422.700736  Gnorm:      0.060723  CPU:    0.143
  Cycle:     10 Energy:      -422.724221  Gnorm:      0.055990  CPU:    0.148
  Cycle:     11 Energy:      -422.748155  Gnorm:      0.068838  CPU:    0.154
  Cycle:     12 Energy:      -422.761982  Gnorm:      0.076031  CPU:    0.182
  Cycle:     13 Energy:      -422.774281  Gnorm:      0.042738  CPU:    0.198
  Cycle:     14 Energy:      -422.787544  Gnorm:      0.035326  CPU:    0.216
  Cycle:     15 Energy:      -422.792151  Gnorm:      0.064067  CPU:    0.240
  Cycle:     16 Energy:      -422.798817  Gnorm:      0.035095  CPU:    0.250
  Cycle:     17 Energy:      -422.802789  Gnorm:      0.029473  CPU:    0.256
  Cycle:     18 Energy:      -422.805693  Gnorm:      0.026811  CPU:    0.261
  Cycle:     19 Energy:      -422.809975  Gnorm:      0.027096  CPU:    0.266
  Cycle:     20 Energy:      -422.811483  Gnorm:      0.046803  CPU:    0.290
  Cycle:     21 Energy:      -422.813956  Gnorm:      0.017139  CPU:    0.301
  Cycle:     22 Energy:      -422.814877  Gnorm:      0.014024  CPU:    0.321
  Cycle:     23 Energy:      -422.815862  Gnorm:      0.015794  CPU:    0.334
  Cycle:     24 Energy:      -422.817776  Gnorm:      0.017214  CPU:    0.340
  Cycle:     25 Energy:      -422.818534  Gnorm:      0.020709  CPU:    0.348
  Cycle:     26 Energy:      -422.819639  Gnorm:      0.012749  CPU:    0.353
  Cycle:     27 Energy:      -422.820713  Gnorm:      0.011255  CPU:    0.379
  Cycle:     28 Energy:      -422.821732  Gnorm:      0.017408  CPU:    0.387
  Cycle:     29 Energy:      -422.822712  Gnorm:      0.017161  CPU:    0.393
  Cycle:     30 Energy:      -422.823661  Gnorm:      0.014168  CPU:    0.398
  Cycle:     31 Energy:      -422.824817  Gnorm:      0.013134  CPU:    0.402
  Cycle:     32 Energy:      -422.825734  Gnorm:      0.017748  CPU:    0.427
  Cycle:     33 Energy:      -422.827208  Gnorm:      0.016854  CPU:    0.436
  Cycle:     34 Energy:      -422.828857  Gnorm:      0.017305  CPU:    0.442
  Cycle:     35 Energy:      -422.830625  Gnorm:      0.014870  CPU:    0.447
  Cycle:     36 Energy:      -422.832158  Gnorm:      0.032769  CPU:    0.451
  Cycle:     37 Energy:      -422.834052  Gnorm:      0.019355  CPU:    0.476
  Cycle:     38 Energy:      -422.835957  Gnorm:      0.015463  CPU:    0.486
  Cycle:     39 Energy:      -422.837737  Gnorm:      0.017539  CPU:    0.492
  Cycle:     40 Energy:      -422.839315  Gnorm:      0.039832  CPU:    0.497
  Cycle:     41 Energy:      -422.841498  Gnorm:      0.014559  CPU:    0.501
  Cycle:     42 Energy:      -422.842457  Gnorm:      0.010866  CPU:    0.525
  Cycle:     43 Energy:      -422.843457  Gnorm:      0.012272  CPU:    0.535
  Cycle:     44 Energy:      -422.844255  Gnorm:      0.021634  CPU:    0.541
  Cycle:     45 Energy:      -422.845104  Gnorm:      0.009524  CPU:    0.546
  Cycle:     46 Energy:      -422.845487  Gnorm:      0.007909  CPU:    0.551
  Cycle:     47 Energy:      -422.845954  Gnorm:      0.011974  CPU:    0.575
  Cycle:     48 Energy:      -422.846275  Gnorm:      0.014432  CPU:    0.584
  Cycle:     49 Energy:      -422.846631  Gnorm:      0.007644  CPU:    0.591
  Cycle:     50 Energy:      -422.846978  Gnorm:      0.006759  CPU:    0.596
  Cycle:     51 Energy:      -422.847220  Gnorm:      0.007727  CPU:    0.601
  Cycle:     52 Energy:      -422.847560  Gnorm:      0.012211  CPU:    0.623
  Cycle:     53 Energy:      -422.847838  Gnorm:      0.006503  CPU:    0.634
  Cycle:     54 Energy:      -422.847964  Gnorm:      0.005739  CPU:    0.640
  Cycle:     55 Energy:      -422.848249  Gnorm:      0.007133  CPU:    0.646
  Cycle:     56 Energy:      -422.848335  Gnorm:      0.013596  CPU:    0.650
  Cycle:     57 Energy:      -422.848561  Gnorm:      0.005240  CPU:    0.669
  Cycle:     58 Energy:      -422.848663  Gnorm:      0.004102  CPU:    0.683
  Cycle:     59 Energy:      -422.848807  Gnorm:      0.005154  CPU:    0.690
  Cycle:     60 Energy:      -422.848986  Gnorm:      0.011898  CPU:    0.695
  Cycle:     61 Energy:      -422.849210  Gnorm:      0.006257  CPU:    0.700
  Cycle:     62 Energy:      -422.849406  Gnorm:      0.005456  CPU:    0.716
  Cycle:     63 Energy:      -422.849626  Gnorm:      0.007926  CPU:    0.732
  Cycle:     64 Energy:      -422.849889  Gnorm:      0.013193  CPU:    0.739
  Cycle:     65 Energy:      -422.850240  Gnorm:      0.008861  CPU:    0.744
  Cycle:     66 Energy:      -422.850657  Gnorm:      0.007640  CPU:    0.749
  Cycle:     67 Energy:      -422.851074  Gnorm:      0.009496  CPU:    0.762
  Cycle:     68 Energy:      -422.851412  Gnorm:      0.017634  CPU:    0.781
  Cycle:     69 Energy:      -422.851933  Gnorm:      0.008639  CPU:    0.793
  Cycle:     70 Energy:      -422.852346  Gnorm:      0.008552  CPU:    0.816
  Cycle:     71 Energy:      -422.852812  Gnorm:      0.009871  CPU:    0.823
  Cycle:     72 Energy:      -422.853577  Gnorm:      0.013766  CPU:    0.829
  Cycle:     73 Energy:      -422.853691  Gnorm:      0.024634  CPU:    0.834
  Cycle:     74 Energy:      -422.854411  Gnorm:      0.006656  CPU:    0.842
  Cycle:     75 Energy:      -422.854568  Gnorm:      0.006112  CPU:    0.865
  Cycle:     76 Energy:      -422.854871  Gnorm:      0.007730  CPU:    0.873
  Cycle:     77 Energy:      -422.855254  Gnorm:      0.011989  CPU:    0.878
  Cycle:     78 Energy:      -422.855528  Gnorm:      0.012308  CPU:    0.883
  Cycle:     79 Energy:      -422.855806  Gnorm:      0.005764  CPU:    0.889
  Cycle:     80 Energy:      -422.856006  Gnorm:      0.005716  CPU:    0.914
  Cycle:     81 Energy:      -422.856189  Gnorm:      0.006872  CPU:    0.922
  Cycle:     82 Energy:      -422.856359  Gnorm:      0.012875  CPU:    0.928
  Cycle:     83 Energy:      -422.856566  Gnorm:      0.004253  CPU:    0.933
  Cycle:     84 Energy:      -422.856633  Gnorm:      0.003783  CPU:    0.937
  Cycle:     85 Energy:      -422.856726  Gnorm:      0.004314  CPU:    0.963
  Cycle:     86 Energy:      -422.856827  Gnorm:      0.009481  CPU:    0.971
  Cycle:     87 Energy:      -422.856951  Gnorm:      0.003554  CPU:    0.977
  Cycle:     88 Energy:      -422.856998  Gnorm:      0.002446  CPU:    0.982
  Cycle:     89 Energy:      -422.857045  Gnorm:      0.002511  CPU:    0.987
  Cycle:     90 Energy:      -422.857062  Gnorm:      0.006096  CPU:    1.012
  Cycle:     91 Energy:      -422.857098  Gnorm:      0.002242  CPU:    1.021
  Cycle:     92 Energy:      -422.857108  Gnorm:      0.001451  CPU:    1.027
  Cycle:     93 Energy:      -422.857115  Gnorm:      0.001555  CPU:    1.032
  Cycle:     94 Energy:      -422.857128  Gnorm:      0.002395  CPU:    1.036
  Cycle:     95 Energy:      -422.857133  Gnorm:      0.002044  CPU:    1.061
  Cycle:     96 Energy:      -422.857142  Gnorm:      0.000829  CPU:    1.070
  Cycle:     97 Energy:      -422.857146  Gnorm:      0.000800  CPU:    1.077
  Cycle:     98 Energy:      -422.857151  Gnorm:      0.000990  CPU:    1.082
  Cycle:     99 Energy:      -422.857152  Gnorm:      0.002380  CPU:    1.086
  Cycle:    100 Energy:      -422.857156  Gnorm:      0.000675  CPU:    1.110
  Cycle:    101 Energy:      -422.857157  Gnorm:      0.000526  CPU:    1.120
  Cycle:    102 Energy:      -422.857158  Gnorm:      0.000614  CPU:    1.126
  Cycle:    103 Energy:      -422.857162  Gnorm:      0.000623  CPU:    1.131
  Cycle:    104 Energy:      -422.857163  Gnorm:      0.001123  CPU:    1.141
  Cycle:    105 Energy:      -422.857166  Gnorm:      0.000491  CPU:    1.165
  Cycle:    106 Energy:      -422.857168  Gnorm:      0.000371  CPU:    1.173
  Cycle:    107 Energy:      -422.857169  Gnorm:      0.000463  CPU:    1.178
  Cycle:    108 Energy:      -422.857169  Gnorm:      0.000507  CPU:    1.183
  Cycle:    109 Energy:      -422.857170  Gnorm:      0.000596  CPU:    1.207
  Cycle:    110 Energy:      -422.857170  Gnorm:      0.000499  CPU:    1.218
  Cycle:    111 Energy:      -422.857171  Gnorm:      0.000722  CPU:    1.225
  Cycle:    112 Energy:      -422.857174  Gnorm:      0.000743  CPU:    1.230
  Cycle:    113 Energy:      -422.857176  Gnorm:      0.000474  CPU:    1.235
  Cycle:    114 Energy:      -422.857178  Gnorm:      0.000491  CPU:    1.253
  Cycle:    115 Energy:      -422.857180  Gnorm:      0.000703  CPU:    1.267
  Cycle:    116 Energy:      -422.857181  Gnorm:      0.000562  CPU:    1.274
  Cycle:    117 Energy:      -422.857182  Gnorm:      0.000573  CPU:    1.280
  Cycle:    118 Energy:      -422.857182  Gnorm:      0.000632  CPU:    1.285
  Cycle:    119 Energy:      -422.857183  Gnorm:      0.000424  CPU:    1.309
  Cycle:    120 Energy:      -422.857186  Gnorm:      0.000397  CPU:    1.317
  Cycle:    121 Energy:      -422.857187  Gnorm:      0.000466  CPU:    1.323
  Cycle:    122 Energy:      -422.857188  Gnorm:      0.001225  CPU:    1.328
  Cycle:    123 Energy:      -422.857189  Gnorm:      0.000321  CPU:    1.332
  Cycle:    124 Energy:      -422.857190  Gnorm:      0.000280  CPU:    1.358
  Cycle:    125 Energy:      -422.857190  Gnorm:      0.000290  CPU:    1.367
  Cycle:    126 Energy:      -422.857191  Gnorm:      0.000925  CPU:    1.373
  Cycle:    127 Energy:      -422.857192  Gnorm:      0.000261  CPU:    1.378


  **** Optimisation achieved ****


  Final energy =    -422.85719159 eV
  Final Gnorm  =       0.00014579

  Components of energy : 

--------------------------------------------------------------------------------
  Interatomic potentials     =           0.00000000 eV    
  Brenner potentials         =        -422.85719159 eV    
  Monopole - monopole (real) =           0.00000000 eV    
  Monopole - monopole (recip)=           0.00000000 eV    
  Monopole - monopole (total)=           0.00000000 eV    
--------------------------------------------------------------------------------
  Total lattice energy       =        -422.85719159 eV    
--------------------------------------------------------------------------------
  Total lattice energy       =          -40799.2550 kJ/(mole unit cells)
--------------------------------------------------------------------------------

  Final fractional coordinates of atoms :

--------------------------------------------------------------------------------
   No.  Atomic        x           y          z          Radius
        Label       (Frac)      (Frac)     (Frac)       (Angs) 
--------------------------------------------------------------------------------
     1  C     c     0.035780    0.526170    0.339890    0.000000
     2  C     c     0.239988    0.055344    0.075434    0.000000
     3  C     c     0.084895    0.374394    0.243223    0.000000
     4  C     c     0.862057    0.907932    0.421645    0.000000
     5  C     c     0.449380    0.860435    0.955320    0.000000
     6  C     c     0.782113    0.426841    0.222610    0.000000
     7  C     c     0.906205    0.581619    0.690612    0.000000
     8  C     c     0.798391    0.497748    0.559268    0.000000
     9  C     c     0.118229    0.328073    0.615599    0.000000
    10  C     c     0.372520    0.709129    0.093361    0.000000
    11  C     c     0.869495    0.202383    0.717103    0.000000
    12  C     c     0.552749    0.847194    0.517175    0.000000
    13  C     c     0.406390    0.190156    0.596053    0.000000
    14  C     c     0.179145    0.929731    0.773519    0.000000
    15  C     c     0.501160    0.558203    0.369902    0.000000
    16  C     c     0.961889    0.893912    0.086639    0.000000
    17  C     c     0.126508    0.766168    0.842200    0.000000
    18  C     c     0.278129    0.667992    0.570545    0.000000
    19  C     c     0.718222    0.329897    0.649294    0.000000
    20  C     c     0.024332    0.198858    0.241008    0.000000
    21  C     c     0.916840    0.116319    0.395288    0.000000
    22  C     c     0.837700    0.560746    0.370421    0.000000
    23  C     c     0.442790    0.771087    0.643008    0.000000
    24  C     c     0.775456    0.241862    0.295272    0.000000
    25  C     c     0.649688    0.107027    0.984252    0.000000
    26  C     c     0.484928    0.546879    0.052408    0.000000
    27  C     c     0.585545    0.229686    0.532508    0.000000
    28  C     c     0.611226    0.933498    0.079953    0.000000
    29  C     c     0.462516    0.862097    0.215392    0.000000
    30  C     c     0.317885    0.005439    0.892359    0.000000
    31  C     c     0.793479    0.058388    0.853399    0.000000
    32  C     c     0.844774    0.713164    0.805020    0.000000
    33  C     c     0.292588    0.348680    0.550447    0.000000
    34  C     c     0.192003    0.640941    0.161694    0.000000
    35  C     c     0.059162    0.457128    0.755392    0.000000
    36  C     c     0.309187    0.049048    0.479335    0.000000
    37  C     c     0.161650    0.686077    0.379661    0.000000
    38  C     c     0.521769    0.257263    0.918970    0.000000
    39  C     c     0.040396    0.082006    0.078691    0.000000
    40  C     c     0.742028    0.884780    0.764182    0.000000
    41  C     c     0.366394    0.504997    0.484405    0.000000
    42  C     c     0.054466    0.848411    0.464090    0.000000
    43  C     c     0.031347    0.386609    0.946413    0.000000
    44  C     c     0.202250    0.431062    0.082996    0.000000
    45  C     c     0.160503    0.629559    0.728708    0.000000
    46  C     c     0.876833    0.480895    0.054383    0.000000
    47  C     c     0.779005    0.809535    0.115835    0.000000
    48  C     c     0.965589    0.185939    0.919187    0.000000
    49  C     c     0.765303    0.752726    0.312909    0.000000
    50  C     c     0.789198    0.646539    0.986283    0.000000
    51  C     c     0.141788    0.989606    0.580069    0.000000
    52  C     c     0.453343    0.211512    0.237618    0.000000
    53  C     c     0.405614    0.340042    0.076497    0.000000
    54  C     c     0.346954    0.031674    0.261120    0.000000
    55  C     c     0.602441    0.215752    0.351979    0.000000
    56  C     c     0.404633    0.153184    0.795058    0.000000
    57  C     c     0.619610    0.400702    0.814255    0.000000
    58  C     c     0.718254    0.909337    0.569540    0.000000
    59  C     c     0.084568    0.760442    0.025933    0.000000
    60  C     c     0.579106    0.473040    0.219274    0.000000
    61  C     c     0.560441    0.754174    0.351783    0.000000
    62  C     c     0.009798    0.158407    0.576191    0.000000
    63  C     c     0.607448    0.585530    0.898434    0.000000
    64  C     c     0.554910    0.769748    0.811459    0.000000
--------------------------------------------------------------------------------

  Final internal derivatives :

--------------------------------------------------------------------------------
   No.  Atomic          a             b             c           Radius
        Label          (eV)          (eV)          (eV)        (eV/Angs)
--------------------------------------------------------------------------------
      1 C     c       0.000000      0.000000      0.000000      0.000000
      2 C     c       0.000828     -0.000131     -0.002525      0.000000
      3 C     c      -0.001841      0.001161     -0.003010      0.000000
      4 C     c       0.001299     -0.004314     -0.002713      0.000000
      5 C     c       0.001519     -0.002547      0.002671      0.000000
      6 C     c      -0.001100      0.000371      0.001090      0.000000
      7 C     c      -0.003167      0.002129     -0.001427      0.000000
      8 C     c      -0.000155      0.002311      0.000221      0.000000
      9 C     c      -0.000507      0.002548     -0.001499      0.000000
     10 C     c      -0.000034      0.000020     -0.001599      0.000000
     11 C     c      -0.001221      0.002073     -0.000701      0.000000
     12 C     c      -0.003283     -0.002795     -0.001732      0.000000
     13 C     c      -0.001376     -0.001253     -0.000467      0.000000
     14 C     c       0.000944      0.001085      0.001991      0.000000
     15 C     c       0.001324     -0.002793     -0.000514      0.000000
     16 C     c      -0.001515      0.001106     -0.001119      0.000000
     17 C     c      -0.000678      0.002357      0.000367      0.000000
     18 C     c      -0.002872      0.000073      0.001314      0.000000
     19 C     c       0.003231      0.001818     -0.002227      0.000000
     20 C     c      -0.002149      0.000125     -0.000128      0.000000
     21 C     c       0.002274     -0.005042      0.001968      0.000000
     22 C     c      -0.000446     -0.002938      0.003857      0.000000
     23 C     c      -0.000315     -0.000869      0.001143      0.000000
     24 C     c       0.000301      0.000478      0.000072      0.000000
     25 C     c       0.002423      0.000851      0.002515      0.000000
     26 C     c      -0.000860     -0.001105      0.000540      0.000000
     27 C     c       0.000006     -0.000622      0.001202      0.000000
     28 C     c       0.001428      0.001125     -0.001637      0.000000
     29 C     c      -0.000059      0.002835      0.001811      0.000000
     30 C     c       0.003890     -0.003780     -0.001993      0.000000
     31 C     c      -0.001930     -0.001415     -0.000218      0.000000
     32 C     c      -0.002217     -0.001799      0.002237      0.000000
     33 C     c      -0.000063     -0.001827      0.000345      0.000000
     34 C     c       0.000158     -0.002335     -0.001435      0.000000
     35 C     c      -0.000185      0.001336      0.001347      0.000000
     36 C     c      -0.001246      0.000802     -0.001033      0.000000
     37 C     c       0.001659      0.000899      0.002482      0.000000
     38 C     c      -0.001601     -0.002166      0.002803      0.000000
     39 C     c      -0.001257     -0.003828      0.002342      0.000000
     40 C     c      -0.002086     -0.000240      0.004358      0.000000
     41 C     c      -0.001030     -0.001753      0.000126      0.000000
     42 C     c      -0.002413     -0.001238      0.004818      0.000000
     43 C     c      -0.001281     -0.000430      0.000214      0.000000
     44 C     c      -0.000675     -0.000194     -0.002921      0.000000
     45 C     c      -0.002901      0.004179     -0.001483      0.000000
     46 C     c      -0.000580      0.000198      0.002475      0.000000
     47 C     c       0.001373      0.003146      0.002570      0.000000
     48 C     c      -0.000225     -0.004796     -0.001144      0.000000
     49 C     c      -0.002394      0.001265      0.001723      0.000000
     50 C     c      -0.000647     -0.002678      0.001976      0.000000
     51 C     c       0.000626     -0.001717      0.003810      0.000000
     52 C     c       0.000207      0.000866     -0.000690      0.000000
     53 C     c       0.000587     -0.001771      0.000766      0.000000
     54 C     c      -0.001717      0.000322      0.000005      0.000000
     55 C     c       0.000294     -0.000189      0.000703      0.000000
     56 C     c      -0.001269     -0.000576     -0.000434      0.000000
     57 C     c      -0.002924      0.001280     -0.000734      0.000000
     58 C     c      -0.002479     -0.005204     -0.000279      0.000000
     59 C     c       0.000362      0.003293      0.000359      0.000000
     60 C     c       0.001741     -0.004102     -0.000432      0.000000
     61 C     c      -0.003766     -0.001428     -0.002786      0.000000
     62 C     c       0.003425      0.000282     -0.000976      0.000000
     63 C     c      -0.000968     -0.000978      0.000838      0.000000
     64 C     c       0.001000     -0.004569      0.004667      0.000000
--------------------------------------------------------------------------------
  Maximum abs         0.003890      0.005204      0.004818      0.000000
--------------------------------------------------------------------------------


  Time to end of optimisation =       1.3858 seconds


  Peak dynamic memory used =       2.01 MB 


  Timing analysis for GULP :

--------------------------------------------------------------------------------
  Task / Subroutine                                          Time (Seconds)
--------------------------------------------------------------------------------
  Calculation of Brenner energy and derivatives                   1.3462
--------------------------------------------------------------------------------
  Total CPU time                                                  1.3860
--------------------------------------------------------------------------------


  CIF file written as opti_1.0300.cif


  Job Finished at 14:18.50 31st July       2020                               

