********************************************************************************
*                       GENERAL UTILITY LATTICE PROGRAM                        *
*                                 Julian Gale                                  *
*                       Curtin Institute for Computation                       *
*                    School of Molecular and Life Sciences                     *
*                    Curtin University, Western Australia                      *
********************************************************************************
* Version = 5.2.0 * Last modified =  17th December 2019                        *
********************************************************************************
*  optimise     - perform optimisation run                                     *
*  conv         - constant volume calculation                                  *
*  isotropic    - only isotropic cell expansion to be allowed                  *
*  conjugate    - use conjugate gradients minimiser                            *
********************************************************************************
* ASE calculation                                                              *
********************************************************************************


  Job Started  at 16:48.15 11th August     2020                               

  Number of CPUs =     1


  Total number of configurations input =      1

********************************************************************************
*  Input for Configuration =   1                                               *
********************************************************************************

  Formula = C64                                                         

  Number of irreducible atoms/shells =      64


  Total number atoms/shells =      64

  Dimensionality = 3               :  Bulk   



  Cartesian lattice vectors (Angstroms) :

        7.570644    0.000000    0.000000
        0.000000    7.570644    0.000000
        0.000000    0.000000    7.570644

  Cell parameters (Angstroms/Degrees):

  a =       7.5706    alpha =  90.0000
  b =       7.5706    beta  =  90.0000
  c =       7.5706    gamma =  90.0000

  Initial cell volume =         433.908815 Angs**3

  Temperature of configuration =   0.00     K 

  Pressure of configuration =         0.000 GPa 

  Fractional coordinates of asymmetric unit :

--------------------------------------------------------------------------------
   No.  Atomic       x           y          z         Charge      Occupancy
        Label      (Frac)      (Frac)     (Frac)        (e)         (Frac)  
--------------------------------------------------------------------------------
      1 C     c    0.025100    0.587150    0.365320     0.00000    1.000000    
      2 C     c    0.261960 *  0.102350 *  0.107880 *   0.00000    1.000000    
      3 C     c    0.100080 *  0.438460 *  0.267700 *   0.00000    1.000000    
      4 C     c    0.878960 *  0.966820 *  0.452800 *   0.00000    1.000000    
      5 C     c    0.476970 *  0.917400 *  0.988740 *   0.00000    1.000000    
      6 C     c    0.786990 *  0.447150 *  0.220140 *   0.00000    1.000000    
      7 C     c    0.923040 *  0.637520 *  0.717050 *   0.00000    1.000000    
      8 C     c    0.810170 *  0.554560 *  0.590260 *   0.00000    1.000000    
      9 C     c    0.131790 *  0.380040 *  0.638710 *   0.00000    1.000000    
     10 C     c    0.404270 *  0.764550 *  0.117610 *   0.00000    1.000000    
     11 C     c    0.889700 *  0.256980 *  0.746610 *   0.00000    1.000000    
     12 C     c    0.569910 *  0.900620 *  0.557400 *   0.00000    1.000000    
     13 C     c    0.425650 *  0.240870 *  0.632440 *   0.00000    1.000000    
     14 C     c    0.200020 *  0.983730 *  0.798590 *   0.00000    1.000000    
     15 C     c    0.523060 *  0.608540 *  0.406760 *   0.00000    1.000000    
     16 C     c    0.987720 *  0.938200 *  0.121300 *   0.00000    1.000000    
     17 C     c    0.134680 *  0.821550 *  0.858210 *   0.00000    1.000000    
     18 C     c    0.347750 *  0.690110 *  0.662490 *   0.00000    1.000000    
     19 C     c    0.738190 *  0.384180 *  0.683430 *   0.00000    1.000000    
     20 C     c    0.046450 *  0.258110 *  0.266300 *   0.00000    1.000000    
     21 C     c    0.936080 *  0.173340 *  0.419850 *   0.00000    1.000000    
     22 C     c    0.843300 *  0.615880 *  0.414970 *   0.00000    1.000000    
     23 C     c    0.478470 *  0.818970 *  0.689890 *   0.00000    1.000000    
     24 C     c    0.794120 *  0.296780 *  0.327440 *   0.00000    1.000000    
     25 C     c    0.669440 *  0.161030 *  0.017330 *   0.00000    1.000000    
     26 C     c    0.520340 *  0.604650 *  0.088340 *   0.00000    1.000000    
     27 C     c    0.606080 *  0.280540 *  0.571440 *   0.00000    1.000000    
     28 C     c    0.633890 *  0.989520 *  0.119020 *   0.00000    1.000000    
     29 C     c    0.479160 *  0.916090 *  0.251290 *   0.00000    1.000000    
     30 C     c    0.339390 *  0.056680 *  0.923070 *   0.00000    1.000000    
     31 C     c    0.810280 *  0.113020 *  0.884120 *   0.00000    1.000000    
     32 C     c    0.867950 *  0.767490 *  0.838090 *   0.00000    1.000000    
     33 C     c    0.307470 *  0.395320 *  0.575810 *   0.00000    1.000000    
     34 C     c    0.226620 *  0.687030 *  0.123410 *   0.00000    1.000000    
     35 C     c    0.071610 *  0.510040 *  0.779400 *   0.00000    1.000000    
     36 C     c    0.326190 *  0.102150 *  0.509580 *   0.00000    1.000000    
     37 C     c    0.121970 *  0.741100 *  0.423810 *   0.00000    1.000000    
     38 C     c    0.542650 *  0.314790 *  0.957100 *   0.00000    1.000000    
     39 C     c    0.063420 *  0.131370 *  0.109250 *   0.00000    1.000000    
     40 C     c    0.769650 *  0.942180 *  0.796810 *   0.00000    1.000000    
     41 C     c    0.392750 *  0.558230 *  0.534200 *   0.00000    1.000000    
     42 C     c    0.068180 *  0.896530 *  0.498720 *   0.00000    1.000000    
     43 C     c    0.001700 *  0.428840 *  0.954850 *   0.00000    1.000000    
     44 C     c    0.238470 *  0.500650 *  0.156150 *   0.00000    1.000000    
     45 C     c    0.195650 *  0.672080 *  0.768160 *   0.00000    1.000000    
     46 C     c    0.892950 *  0.519810 *  0.081840 *   0.00000    1.000000    
     47 C     c    0.799980 *  0.863030 *  0.155410 *   0.00000    1.000000    
     48 C     c    0.985830 *  0.222010 *  0.949250 *   0.00000    1.000000    
     49 C     c    0.775600 *  0.805360 *  0.350140 *   0.00000    1.000000    
     50 C     c    0.821570 *  0.700470 *  0.025360 *   0.00000    1.000000    
     51 C     c    0.158980 *  0.041530 *  0.607950 *   0.00000    1.000000    
     52 C     c    0.476040 *  0.263670 *  0.276630 *   0.00000    1.000000    
     53 C     c    0.434680 *  0.399100 *  0.122780 *   0.00000    1.000000    
     54 C     c    0.365660 *  0.086630 *  0.294640 *   0.00000    1.000000    
     55 C     c    0.624160 *  0.266270 *  0.391710 *   0.00000    1.000000    
     56 C     c    0.422290 *  0.211340 *  0.832230 *   0.00000    1.000000    
     57 C     c    0.643820 *  0.455720 *  0.850330 *   0.00000    1.000000    
     58 C     c    0.737120 *  0.967710 *  0.602660 *   0.00000    1.000000    
     59 C     c    0.099210 *  0.802470 *  0.043610 *   0.00000    1.000000    
     60 C     c    0.617730 *  0.536110 *  0.254430 *   0.00000    1.000000    
     61 C     c    0.572990 *  0.809180 *  0.390000 *   0.00000    1.000000    
     62 C     c    0.027000 *  0.208410 *  0.602340 *   0.00000    1.000000    
     63 C     c    0.640770 *  0.641500 *  0.932270 *   0.00000    1.000000    
     64 C     c    0.588560 *  0.824650 *  0.852350 *   0.00000    1.000000    
--------------------------------------------------------------------------------


  Constraints : 

--------------------------------------------------------------------------------
  Constraint no.      Unconstrained     Constrained    Coefficient    Offset
                         Variable         Variable
--------------------------------------------------------------------------------
           1              Strain 1        Strain 2       1.00000      0.0000
           2              Strain 1        Strain 3       1.00000      0.0000
--------------------------------------------------------------------------------


********************************************************************************
*  General input information                                                   *
********************************************************************************

  Species output for all configurations : 

--------------------------------------------------------------------------------
  Species    Type    Atomic    Atomic    Charge       Radii (Angs)     Library
                     Number     Mass       (e)     Cova   Ionic  VDW   Symbol
--------------------------------------------------------------------------------
    C        Core        6      12.01   0.000000   0.770  0.000  1.530          
--------------------------------------------------------------------------------


  Lattice summation method               =    Ewald          (3-D)
                                         =    Parry          (2-D)
                                         =    Saunders et al (1-D)
  Accuracy factor for lattice sums       =   12.000


  Analytic derivatives to be used

  Time limit = Infinity

  Maximum range for interatomic potentials =    100000.000000 Angstroms

  Brenner et al 2002 potential to be used with explicit splines for P


********************************************************************************
*  Output for configuration   1                                                *
********************************************************************************


  Components of energy : 

--------------------------------------------------------------------------------
  Interatomic potentials     =           0.00000000 eV    
  Brenner potentials         =        -428.45842213 eV    
  Monopole - monopole (real) =           0.00000000 eV    
  Monopole - monopole (recip)=           0.00000000 eV    
  Monopole - monopole (total)=           0.00000000 eV    
--------------------------------------------------------------------------------
  Total lattice energy       =        -428.45842213 eV    
--------------------------------------------------------------------------------
  Total lattice energy       =          -41339.6881 kJ/(mole unit cells)
--------------------------------------------------------------------------------


  Number of variables =      189

  Maximum number of calculations  =          2000
  Maximum Hessian update interval =            10
  Maximum step size               =   1.000000000
  Maximum parameter tolerance     =   0.000010000
  Maximum function  tolerance     =   0.000010000
  Maximum gradient  tolerance     =   0.001000000
  Maximum gradient  component     =   0.010000000

  Symmetry not applied to optimisation

  Conjugate gradient optimiser to be used

  Lower half triangular hessian to be used

  Start of bulk optimisation :

  Cycle:      0 Energy:      -428.458422  Gnorm:      0.013779  CPU:    0.013
  Cycle:      1 Energy:      -428.458603  Gnorm:      0.003719  CPU:    0.036
  Cycle:      2 Energy:      -428.458633  Gnorm:      0.003412  CPU:    0.048
  Cycle:      3 Energy:      -428.458676  Gnorm:      0.003024  CPU:    0.074
  Cycle:      4 Energy:      -428.458701  Gnorm:      0.002717  CPU:    0.082
  Cycle:      5 Energy:      -428.458716  Gnorm:      0.002101  CPU:    0.106
  Cycle:      6 Energy:      -428.458738  Gnorm:      0.002064  CPU:    0.118
  Cycle:      7 Energy:      -428.458747  Gnorm:      0.001707  CPU:    0.142
  Cycle:      8 Energy:      -428.458755  Gnorm:      0.001524  CPU:    0.151
  Cycle:      9 Energy:      -428.458762  Gnorm:      0.001242  CPU:    0.178
  Cycle:     10 Energy:      -428.458764  Gnorm:      0.000816  CPU:    0.201
  Cycle:     11 Energy:      -428.458766  Gnorm:      0.000679  CPU:    0.212
  Cycle:     12 Energy:      -428.458768  Gnorm:      0.001077  CPU:    0.235
  Cycle:     13 Energy:      -428.458770  Gnorm:      0.000883  CPU:    0.243
  Cycle:     14 Energy:      -428.458771  Gnorm:      0.000488  CPU:    0.267
  Cycle:     15 Energy:      -428.458772  Gnorm:      0.000346  CPU:    0.293
  Cycle:     16 Energy:      -428.458773  Gnorm:      0.000677  CPU:    0.302
  Cycle:     17 Energy:      -428.458774  Gnorm:      0.000438  CPU:    0.328
  Cycle:     18 Energy:      -428.458774  Gnorm:      0.000353  CPU:    0.337


  **** Optimisation achieved ****


  Final energy =    -428.45877463 eV
  Final Gnorm  =       0.00023146

  Components of energy : 

--------------------------------------------------------------------------------
  Interatomic potentials     =           0.00000000 eV    
  Brenner potentials         =        -428.45877463 eV    
  Monopole - monopole (real) =           0.00000000 eV    
  Monopole - monopole (recip)=           0.00000000 eV    
  Monopole - monopole (total)=           0.00000000 eV    
--------------------------------------------------------------------------------
  Total lattice energy       =        -428.45877463 eV    
--------------------------------------------------------------------------------
  Total lattice energy       =          -41339.7222 kJ/(mole unit cells)
--------------------------------------------------------------------------------

  Final fractional coordinates of atoms :

--------------------------------------------------------------------------------
   No.  Atomic        x           y          z          Radius
        Label       (Frac)      (Frac)     (Frac)       (Angs) 
--------------------------------------------------------------------------------
     1  C     c     0.025100    0.587150    0.365320    0.000000
     2  C     c     0.262017    0.102341    0.107905    0.000000
     3  C     c     0.100102    0.438391    0.267740    0.000000
     4  C     c     0.878954    0.966772    0.452783    0.000000
     5  C     c     0.476957    0.917450    0.988695    0.000000
     6  C     c     0.787041    0.447052    0.220059    0.000000
     7  C     c     0.923134    0.637596    0.717011    0.000000
     8  C     c     0.810132    0.554638    0.590269    0.000000
     9  C     c     0.131738    0.380004    0.638627    0.000000
    10  C     c     0.404236    0.764570    0.117588    0.000000
    11  C     c     0.889746    0.257051    0.746624    0.000000
    12  C     c     0.569803    0.900805    0.557394    0.000000
    13  C     c     0.425647    0.240835    0.632438    0.000000
    14  C     c     0.199916    0.983756    0.798619    0.000000
    15  C     c     0.523117    0.608541    0.406760    0.000000
    16  C     c     0.987678    0.938216    0.121384    0.000000
    17  C     c     0.134521    0.821551    0.858214    0.000000
    18  C     c     0.347682    0.690144    0.662462    0.000000
    19  C     c     0.738209    0.384206    0.683417    0.000000
    20  C     c     0.046587    0.257997    0.266365    0.000000
    21  C     c     0.936075    0.173256    0.419821    0.000000
    22  C     c     0.843271    0.615915    0.414933    0.000000
    23  C     c     0.478373    0.819083    0.689909    0.000000
    24  C     c     0.794105    0.296640    0.327348    0.000000
    25  C     c     0.669469    0.161141    0.017436    0.000000
    26  C     c     0.520361    0.604663    0.088297    0.000000
    27  C     c     0.606113    0.280482    0.571440    0.000000
    28  C     c     0.633841    0.989589    0.119075    0.000000
    29  C     c     0.479073    0.916090    0.251346    0.000000
    30  C     c     0.339358    0.056705    0.923057    0.000000
    31  C     c     0.810318    0.113087    0.884191    0.000000
    32  C     c     0.868113    0.767603    0.838110    0.000000
    33  C     c     0.307450    0.395273    0.575696    0.000000
    34  C     c     0.226569    0.687000    0.123423    0.000000
    35  C     c     0.071620    0.509955    0.779383    0.000000
    36  C     c     0.326198    0.102068    0.509617    0.000000
    37  C     c     0.122117    0.741048    0.423779    0.000000
    38  C     c     0.542619    0.314838    0.957118    0.000000
    39  C     c     0.063471    0.131303    0.109291    0.000000
    40  C     c     0.769668    0.942254    0.796831    0.000000
    41  C     c     0.392747    0.558231    0.534164    0.000000
    42  C     c     0.068205    0.896469    0.498741    0.000000
    43  C     c     0.001856    0.428807    0.954872    0.000000
    44  C     c     0.238455    0.500579    0.156096    0.000000
    45  C     c     0.195558    0.672079    0.768141    0.000000
    46  C     c     0.893085    0.519826    0.081855    0.000000
    47  C     c     0.799903    0.863088    0.155473    0.000000
    48  C     c     0.985961    0.221969    0.949293    0.000000
    49  C     c     0.775563    0.805367    0.350168    0.000000
    50  C     c     0.821671    0.700514    0.025387    0.000000
    51  C     c     0.158958    0.041502    0.607963    0.000000
    52  C     c     0.475933    0.263660    0.276641    0.000000
    53  C     c     0.434569    0.399082    0.122771    0.000000
    54  C     c     0.365565    0.086603    0.294756    0.000000
    55  C     c     0.624137    0.266188    0.391662    0.000000
    56  C     c     0.422251    0.211390    0.832230    0.000000
    57  C     c     0.643818    0.455759    0.850319    0.000000
    58  C     c     0.737083    0.967871    0.602663    0.000000
    59  C     c     0.099091    0.802422    0.043651    0.000000
    60  C     c     0.617779    0.536089    0.254412    0.000000
    61  C     c     0.572947    0.809223    0.390041    0.000000
    62  C     c     0.026982    0.208327    0.602298    0.000000
    63  C     c     0.640850    0.641583    0.932227    0.000000
    64  C     c     0.588598    0.824714    0.852318    0.000000
--------------------------------------------------------------------------------

  Final internal derivatives :

--------------------------------------------------------------------------------
   No.  Atomic          a             b             c           Radius
        Label          (eV)          (eV)          (eV)        (eV/Angs)
--------------------------------------------------------------------------------
      1 C     c       0.000000      0.000000      0.000000      0.000000
      2 C     c      -0.003044      0.003551     -0.005598      0.000000
      3 C     c       0.002503     -0.000314     -0.004277      0.000000
      4 C     c       0.004247      0.001797     -0.001850      0.000000
      5 C     c       0.004012     -0.000618     -0.002363      0.000000
      6 C     c      -0.002973      0.000109      0.000207      0.000000
      7 C     c      -0.006832     -0.007843      0.004971      0.000000
      8 C     c       0.001318     -0.002296     -0.001840      0.000000
      9 C     c      -0.001724     -0.002081      0.001158      0.000000
     10 C     c       0.000253     -0.003667     -0.000293      0.000000
     11 C     c       0.000323     -0.007429      0.000199      0.000000
     12 C     c       0.005328     -0.004768     -0.004336      0.000000
     13 C     c      -0.000520     -0.001882     -0.002556      0.000000
     14 C     c       0.002551     -0.002817     -0.003756      0.000000
     15 C     c       0.000476     -0.001599     -0.002055      0.000000
     16 C     c       0.002311     -0.000520     -0.001118      0.000000
     17 C     c       0.004678     -0.001162      0.003223      0.000000
     18 C     c       0.005123     -0.000835      0.004754      0.000000
     19 C     c      -0.003557     -0.003635     -0.000106      0.000000
     20 C     c      -0.002042     -0.000218     -0.004845      0.000000
     21 C     c       0.000501      0.000474      0.003754      0.000000
     22 C     c       0.007915     -0.002597      0.000108      0.000000
     23 C     c       0.004512     -0.002595      0.000101      0.000000
     24 C     c      -0.003370      0.002013      0.001341      0.000000
     25 C     c      -0.001866     -0.004818     -0.001375      0.000000
     26 C     c       0.001144      0.000489      0.000830      0.000000
     27 C     c       0.000113     -0.003490     -0.001269      0.000000
     28 C     c       0.006603     -0.003078     -0.000569      0.000000
     29 C     c       0.004070      0.003507      0.003632      0.000000
     30 C     c       0.001290     -0.003157     -0.000042      0.000000
     31 C     c      -0.000536     -0.002584     -0.001879      0.000000
     32 C     c      -0.009691     -0.007974     -0.001119      0.000000
     33 C     c      -0.003266     -0.003811      0.002290      0.000000
     34 C     c      -0.001463      0.003687      0.000680      0.000000
     35 C     c       0.000369      0.002389     -0.003719      0.000000
     36 C     c      -0.000643      0.004966     -0.002126      0.000000
     37 C     c      -0.000549      0.000676     -0.003430      0.000000
     38 C     c       0.003514     -0.002105      0.000785      0.000000
     39 C     c      -0.001628      0.006390      0.000562      0.000000
     40 C     c       0.002411     -0.003291     -0.005563      0.000000
     41 C     c      -0.001839     -0.003064      0.002647      0.000000
     42 C     c       0.003192      0.001531     -0.003643      0.000000
     43 C     c      -0.003923      0.000744      0.002462      0.000000
     44 C     c       0.001611      0.006966      0.000767      0.000000
     45 C     c       0.006051     -0.001625      0.005854      0.000000
     46 C     c      -0.003278     -0.003539      0.003425      0.000000
     47 C     c       0.001328     -0.000685     -0.003190      0.000000
     48 C     c      -0.002247      0.001992     -0.000412      0.000000
     49 C     c      -0.001530     -0.002780     -0.001565      0.000000
     50 C     c      -0.002369     -0.004160      0.000029      0.000000
     51 C     c       0.000775      0.001134     -0.005755      0.000000
     52 C     c       0.005910      0.000756      0.004006      0.000000
     53 C     c      -0.003258     -0.002769     -0.006381      0.000000
     54 C     c       0.000936     -0.002743     -0.003722      0.000000
     55 C     c       0.004118      0.001088      0.000311      0.000000
     56 C     c      -0.001205      0.000132      0.000048      0.000000
     57 C     c      -0.000681     -0.002706      0.000438      0.000000
     58 C     c       0.002463     -0.004510     -0.003926      0.000000
     59 C     c       0.003035      0.003166      0.001802      0.000000
     60 C     c       0.001056      0.000393     -0.002033      0.000000
     61 C     c      -0.002290      0.001964     -0.000735      0.000000
     62 C     c       0.000413      0.005248     -0.001791      0.000000
     63 C     c      -0.003513     -0.004960      0.001684      0.000000
     64 C     c      -0.001492     -0.000631      0.000688      0.000000
--------------------------------------------------------------------------------
  Maximum abs         0.009691      0.007974      0.006381      0.000000
--------------------------------------------------------------------------------


  Time to end of optimisation =       0.3605 seconds


  Peak dynamic memory used =       1.98 MB 


  Timing analysis for GULP :

--------------------------------------------------------------------------------
  Task / Subroutine                                          Time (Seconds)
--------------------------------------------------------------------------------
  Calculation of Brenner energy and derivatives                   0.3467
--------------------------------------------------------------------------------
  Total CPU time                                                  0.3605
--------------------------------------------------------------------------------


  CIF file written as opti_0.9850.cif


  Job Finished at 16:48.15 11th August     2020                               

