********************************************************************************
*                       GENERAL UTILITY LATTICE PROGRAM                        *
*                                 Julian Gale                                  *
*                       Curtin Institute for Computation                       *
*                    School of Molecular and Life Sciences                     *
*                    Curtin University, Western Australia                      *
********************************************************************************
* Version = 5.2.0 * Last modified =  17th December 2019                        *
********************************************************************************
*  optimise     - perform optimisation run                                     *
*  conv         - constant volume calculation                                  *
*  isotropic    - only isotropic cell expansion to be allowed                  *
*  lbfgs        - use limited memory BFGS update                               *
********************************************************************************
* ASE calculation                                                              *
********************************************************************************


  Job Started  at 16:20.05 12th August     2020                               

  Number of CPUs =     1


  Total number of configurations input =      1

********************************************************************************
*  Input for Configuration =   1                                               *
********************************************************************************

  Formula = C64                                                         

  Number of irreducible atoms/shells =      64


  Total number atoms/shells =      64

  Dimensionality = 3               :  Bulk   



  Cartesian lattice vectors (Angstroms) :

        7.501372    0.000000    0.000000
        0.000000    7.501372    0.000000
        0.000000    0.000000    7.501372

  Cell parameters (Angstroms/Degrees):

  a =       7.5014    alpha =  90.0000
  b =       7.5014    beta  =  90.0000
  c =       7.5014    gamma =  90.0000

  Initial cell volume =         422.106567 Angs**3

  Temperature of configuration =   0.00     K 

  Pressure of configuration =         0.000 GPa 

  Fractional coordinates of asymmetric unit :

--------------------------------------------------------------------------------
   No.  Atomic       x           y          z         Charge      Occupancy
        Label      (Frac)      (Frac)     (Frac)        (e)         (Frac)  
--------------------------------------------------------------------------------
      1 C     c    0.082860    0.546420    0.420470     0.00000    1.000000    
      2 C     c    0.300470 *  0.098480 *  0.158050 *   0.00000    1.000000    
      3 C     c    0.135430 *  0.397320 *  0.321400 *   0.00000    1.000000    
      4 C     c    0.905490 *  0.925920 *  0.500530 *   0.00000    1.000000    
      5 C     c    0.496470 *  0.888330 *  0.033250 *   0.00000    1.000000    
      6 C     c    0.816780 *  0.441270 *  0.290230 *   0.00000    1.000000    
      7 C     c    0.945770 *  0.607820 *  0.761780 *   0.00000    1.000000    
      8 C     c    0.840320 *  0.519590 *  0.629820 *   0.00000    1.000000    
      9 C     c    0.152890 *  0.348160 *  0.688790 *   0.00000    1.000000    
     10 C     c    0.417360 *  0.733360 *  0.168120 *   0.00000    1.000000    
     11 C     c    0.912950 *  0.222370 *  0.789680 *   0.00000    1.000000    
     12 C     c    0.594660 *  0.873970 *  0.593910 *   0.00000    1.000000    
     13 C     c    0.450710 *  0.212820 *  0.666970 *   0.00000    1.000000    
     14 C     c    0.222920 *  0.959920 *  0.855440 *   0.00000    1.000000    
     15 C     c    0.544790 *  0.575680 *  0.447490 *   0.00000    1.000000    
     16 C     c    0.011880 *  0.923390 *  0.168010 *   0.00000    1.000000    
     17 C     c    0.170450 *  0.793090 *  0.921890 *   0.00000    1.000000    
     18 C     c    0.324040 *  0.692350 *  0.651930 *   0.00000    1.000000    
     19 C     c    0.762670 *  0.347470 *  0.713160 *   0.00000    1.000000    
     20 C     c    0.064920 *  0.226020 *  0.316700 *   0.00000    1.000000    
     21 C     c    0.939020 *  0.137230 *  0.452960 *   0.00000    1.000000    
     22 C     c    0.882990 *  0.573160 *  0.439880 *   0.00000    1.000000    
     23 C     c    0.483380 *  0.799280 *  0.721410 *   0.00000    1.000000    
     24 C     c    0.800220 *  0.235140 *  0.302270 *   0.00000    1.000000    
     25 C     c    0.720270 *  0.151940 *  0.111960 *   0.00000    1.000000    
     26 C     c    0.529470 *  0.570940 *  0.123160 *   0.00000    1.000000    
     27 C     c    0.623950 *  0.264260 *  0.582370 *   0.00000    1.000000    
     28 C     c    0.661500 *  0.958000 *  0.159510 *   0.00000    1.000000    
     29 C     c    0.510700 *  0.875200 *  0.296820 *   0.00000    1.000000    
     30 C     c    0.368170 *  0.034740 *  0.972170 *   0.00000    1.000000    
     31 C     c    0.838010 *  0.084970 *  0.940300 *   0.00000    1.000000    
     32 C     c    0.887020 *  0.741300 *  0.878490 *   0.00000    1.000000    
     33 C     c    0.329920 *  0.369220 *  0.625000 *   0.00000    1.000000    
     34 C     c    0.234910 *  0.665930 *  0.237200 *   0.00000    1.000000    
     35 C     c    0.097820 *  0.482080 *  0.828230 *   0.00000    1.000000    
     36 C     c    0.357300 *  0.059430 *  0.561620 *   0.00000    1.000000    
     37 C     c    0.205560 *  0.709380 *  0.458790 *   0.00000    1.000000    
     38 C     c    0.577830 *  0.283650 *  0.000200 *   0.00000    1.000000    
     39 C     c    0.096250 *  0.111340 *  0.154850 *   0.00000    1.000000    
     40 C     c    0.783300 *  0.916310 *  0.845700 *   0.00000    1.000000    
     41 C     c    0.406360 *  0.526900 *  0.561540 *   0.00000    1.000000    
     42 C     c    0.094690 *  0.865200 *  0.548260 *   0.00000    1.000000    
     43 C     c    0.072230 *  0.412820 *  0.017680 *   0.00000    1.000000    
     44 C     c    0.238240 *  0.455410 *  0.151960 *   0.00000    1.000000    
     45 C     c    0.203740 *  0.654420 *  0.807420 *   0.00000    1.000000    
     46 C     c    0.918830 *  0.504530 *  0.126220 *   0.00000    1.000000    
     47 C     c    0.828050 *  0.833420 *  0.193820 *   0.00000    1.000000    
     48 C     c    0.017560 *  0.212950 *  0.992570 *   0.00000    1.000000    
     49 C     c    0.812710 *  0.769570 *  0.389370 *   0.00000    1.000000    
     50 C     c    0.835940 *  0.673740 *  0.062610 *   0.00000    1.000000    
     51 C     c    0.185060 *  0.009430 *  0.659170 *   0.00000    1.000000    
     52 C     c    0.457630 *  0.216810 *  0.274090 *   0.00000    1.000000    
     53 C     c    0.431410 *  0.378370 *  0.134190 *   0.00000    1.000000    
     54 C     c    0.387750 *  0.028060 *  0.356610 *   0.00000    1.000000    
     55 C     c    0.620120 *  0.243470 *  0.401380 *   0.00000    1.000000    
     56 C     c    0.467290 *  0.174440 *  0.869580 *   0.00000    1.000000    
     57 C     c    0.671060 *  0.425450 *  0.885090 *   0.00000    1.000000    
     58 C     c    0.760010 *  0.942560 *  0.648250 *   0.00000    1.000000    
     59 C     c    0.130720 *  0.786950 *  0.105540 *   0.00000    1.000000    
     60 C     c    0.614630 *  0.488110 *  0.292770 *   0.00000    1.000000    
     61 C     c    0.609350 *  0.770250 *  0.432430 *   0.00000    1.000000    
     62 C     c    0.047380 *  0.170810 *  0.640760 *   0.00000    1.000000    
     63 C     c    0.654620 *  0.612400 *  0.969500 *   0.00000    1.000000    
     64 C     c    0.597000 *  0.795710 *  0.888070 *   0.00000    1.000000    
--------------------------------------------------------------------------------


  Constraints : 

--------------------------------------------------------------------------------
  Constraint no.      Unconstrained     Constrained    Coefficient    Offset
                         Variable         Variable
--------------------------------------------------------------------------------
           1              Strain 1        Strain 2       1.00000      0.0000
           2              Strain 1        Strain 3       1.00000      0.0000
--------------------------------------------------------------------------------


********************************************************************************
*  General input information                                                   *
********************************************************************************

  Species output for all configurations : 

--------------------------------------------------------------------------------
  Species    Type    Atomic    Atomic    Charge       Radii (Angs)     Library
                     Number     Mass       (e)     Cova   Ionic  VDW   Symbol
--------------------------------------------------------------------------------
    C        Core        6      12.01   0.000000   0.770  0.000  1.530          
--------------------------------------------------------------------------------


  Lattice summation method               =    Ewald          (3-D)
                                         =    Parry          (2-D)
                                         =    Saunders et al (1-D)
  Accuracy factor for lattice sums       =   12.000


  Analytic derivatives to be used

  Time limit = Infinity

  Maximum range for interatomic potentials =    100000.000000 Angstroms

  Brenner et al 2002 potential to be used with explicit splines for P


********************************************************************************
*  Output for configuration   1                                                *
********************************************************************************


  Components of energy : 

--------------------------------------------------------------------------------
  Interatomic potentials     =           0.00000000 eV    
  Brenner potentials         =        -425.31518417 eV    
  Monopole - monopole (real) =           0.00000000 eV    
  Monopole - monopole (recip)=           0.00000000 eV    
  Monopole - monopole (total)=           0.00000000 eV    
--------------------------------------------------------------------------------
  Total lattice energy       =        -425.31518417 eV    
--------------------------------------------------------------------------------
  Total lattice energy       =          -41036.4137 kJ/(mole unit cells)
--------------------------------------------------------------------------------


  Number of variables =      189

  Maximum number of calculations  =          2000
  Maximum Hessian update interval =            10
  Maximum step size               =   1.000000000
  Maximum parameter tolerance     =   0.000010000
  Maximum function  tolerance     =   0.000010000
  Maximum gradient  tolerance     =   0.001000000
  Maximum gradient  component     =   0.010000000

  Maximum LM gradient tolerance   =   0.900000000
  Symmetry not applied to optimisation

  Limited Memory BFGS to be used of order   10

  BFGS hessian update to be used

  Lower half triangular hessian to be used

  Start of bulk optimisation :

  Cycle:      0 Energy:      -425.315184  Gnorm:      0.015593  CPU:    0.013
  Cycle:      1 Energy:      -425.315452  Gnorm:      0.005065  CPU:    0.020
  Cycle:      2 Energy:      -425.315488  Gnorm:      0.002709  CPU:    0.036
  Cycle:      3 Energy:      -425.315513  Gnorm:      0.002115  CPU:    0.048
  Cycle:      4 Energy:      -425.315534  Gnorm:      0.002308  CPU:    0.053
  Cycle:      5 Energy:      -425.315552  Gnorm:      0.002654  CPU:    0.057
  Cycle:      6 Energy:      -425.315565  Gnorm:      0.001331  CPU:    0.063
  Cycle:      7 Energy:      -425.315572  Gnorm:      0.001160  CPU:    0.066
  Cycle:      8 Energy:      -425.315579  Gnorm:      0.001167  CPU:    0.079
  Cycle:      9 Energy:      -425.315583  Gnorm:      0.002151  CPU:    0.092
  Cycle:     10 Energy:      -425.315588  Gnorm:      0.000755  CPU:    0.100
  Cycle:     11 Energy:      -425.315590  Gnorm:      0.000550  CPU:    0.120
  Cycle:     12 Energy:      -425.315591  Gnorm:      0.000606  CPU:    0.131
  Cycle:     13 Energy:      -425.315593  Gnorm:      0.001053  CPU:    0.136
  Cycle:     14 Energy:      -425.315595  Gnorm:      0.000358  CPU:    0.141
  Cycle:     15 Energy:      -425.315595  Gnorm:      0.000284  CPU:    0.145
  Cycle:     16 Energy:      -425.315596  Gnorm:      0.000299  CPU:    0.149
  Cycle:     17 Energy:      -425.315596  Gnorm:      0.000557  CPU:    0.170
  Cycle:     18 Energy:      -425.315597  Gnorm:      0.000228  CPU:    0.176


  **** Optimisation achieved ****


  Final energy =    -425.31559677 eV
  Final Gnorm  =       0.00017191

  Components of energy : 

--------------------------------------------------------------------------------
  Interatomic potentials     =           0.00000000 eV    
  Brenner potentials         =        -425.31559677 eV    
  Monopole - monopole (real) =           0.00000000 eV    
  Monopole - monopole (recip)=           0.00000000 eV    
  Monopole - monopole (total)=           0.00000000 eV    
--------------------------------------------------------------------------------
  Total lattice energy       =        -425.31559677 eV    
--------------------------------------------------------------------------------
  Total lattice energy       =          -41036.4535 kJ/(mole unit cells)
--------------------------------------------------------------------------------

  Final fractional coordinates of atoms :

--------------------------------------------------------------------------------
   No.  Atomic        x           y          z          Radius
        Label       (Frac)      (Frac)     (Frac)       (Angs) 
--------------------------------------------------------------------------------
     1  C     c     0.082860    0.546420    0.420470    0.000000
     2  C     c     0.300429    0.098473    0.158022    0.000000
     3  C     c     0.135537    0.397288    0.321445    0.000000
     4  C     c     0.905481    0.925865    0.500513    0.000000
     5  C     c     0.496433    0.888335    0.033199    0.000000
     6  C     c     0.816871    0.441237    0.290170    0.000000
     7  C     c     0.945762    0.607872    0.761722    0.000000
     8  C     c     0.840252    0.519628    0.629774    0.000000
     9  C     c     0.152829    0.348134    0.688691    0.000000
    10  C     c     0.417379    0.733330    0.168095    0.000000
    11  C     c     0.912965    0.222395    0.789641    0.000000
    12  C     c     0.594547    0.874193    0.593847    0.000000
    13  C     c     0.450710    0.212770    0.666966    0.000000
    14  C     c     0.222799    0.959945    0.855465    0.000000
    15  C     c     0.544859    0.575649    0.447519    0.000000
    16  C     c     0.011801    0.923439    0.168068    0.000000
    17  C     c     0.170331    0.793078    0.921906    0.000000
    18  C     c     0.324098    0.692376    0.651994    0.000000
    19  C     c     0.762686    0.347454    0.713112    0.000000
    20  C     c     0.065023    0.225955    0.316793    0.000000
    21  C     c     0.938998    0.137159    0.452979    0.000000
    22  C     c     0.882968    0.573180    0.439836    0.000000
    23  C     c     0.483315    0.799447    0.721405    0.000000
    24  C     c     0.800228    0.235101    0.302168    0.000000
    25  C     c     0.720249    0.151969    0.111938    0.000000
    26  C     c     0.529505    0.570903    0.123122    0.000000
    27  C     c     0.623977    0.264232    0.582363    0.000000
    28  C     c     0.661435    0.958036    0.159515    0.000000
    29  C     c     0.510660    0.875182    0.296870    0.000000
    30  C     c     0.368111    0.034746    0.972154    0.000000
    31  C     c     0.837999    0.085005    0.940315    0.000000
    32  C     c     0.887111    0.741415    0.878454    0.000000
    33  C     c     0.329897    0.369175    0.624915    0.000000
    34  C     c     0.234925    0.665966    0.237096    0.000000
    35  C     c     0.097814    0.482064    0.828179    0.000000
    36  C     c     0.357311    0.059328    0.561670    0.000000
    37  C     c     0.205602    0.709381    0.458776    0.000000
    38  C     c     0.577855    0.283648    0.000188    0.000000
    39  C     c     0.096233    0.111330    0.154862    0.000000
    40  C     c     0.783266    0.916381    0.845671    0.000000
    41  C     c     0.406374    0.526899    0.561536    0.000000
    42  C     c     0.094669    0.865127    0.548316    0.000000
    43  C     c     0.072273    0.412801    0.017627    0.000000
    44  C     c     0.238235    0.455347    0.151886    0.000000
    45  C     c     0.203839    0.654363    0.807484    0.000000
    46  C     c     0.918910    0.504551    0.126173    0.000000
    47  C     c     0.827976    0.833450    0.193852    0.000000
    48  C     c     0.017638    0.212944    0.992585    0.000000
    49  C     c     0.812702    0.769548    0.389383    0.000000
    50  C     c     0.835988    0.673797    0.062586    0.000000
    51  C     c     0.185029    0.009393    0.659198    0.000000
    52  C     c     0.457629    0.216811    0.274143    0.000000
    53  C     c     0.431373    0.378312    0.134119    0.000000
    54  C     c     0.387685    0.028026    0.356673    0.000000
    55  C     c     0.620146    0.243474    0.401340    0.000000
    56  C     c     0.467283    0.174432    0.869557    0.000000
    57  C     c     0.671091    0.425455    0.885048    0.000000
    58  C     c     0.759958    0.942779    0.648219    0.000000
    59  C     c     0.130561    0.786907    0.105569    0.000000
    60  C     c     0.614679    0.488040    0.292771    0.000000
    61  C     c     0.609366    0.770238    0.432468    0.000000
    62  C     c     0.047365    0.170745    0.640706    0.000000
    63  C     c     0.654673    0.612429    0.969422    0.000000
    64  C     c     0.597014    0.795766    0.888018    0.000000
--------------------------------------------------------------------------------

  Final internal derivatives :

--------------------------------------------------------------------------------
   No.  Atomic          a             b             c           Radius
        Label          (eV)          (eV)          (eV)        (eV/Angs)
--------------------------------------------------------------------------------
      1 C     c       0.000000      0.000000      0.000000      0.000000
      2 C     c      -0.000217      0.000401     -0.000436      0.000000
      3 C     c      -0.001325     -0.001047     -0.000725      0.000000
      4 C     c       0.003645     -0.000733     -0.002007      0.000000
      5 C     c      -0.000468     -0.002345      0.008573      0.000000
      6 C     c      -0.003211     -0.001606      0.000601      0.000000
      7 C     c      -0.001074     -0.000302      0.002676      0.000000
      8 C     c       0.003283     -0.000011      0.000847      0.000000
      9 C     c       0.002348     -0.004120     -0.001033      0.000000
     10 C     c      -0.000247      0.001392      0.001035      0.000000
     11 C     c       0.001844      0.000386      0.001624      0.000000
     12 C     c      -0.001624     -0.002094      0.000489      0.000000
     13 C     c      -0.003757      0.000054     -0.000713      0.000000
     14 C     c       0.000581     -0.000125     -0.000231      0.000000
     15 C     c      -0.000591      0.003226      0.000758      0.000000
     16 C     c       0.000882      0.000300      0.004226      0.000000
     17 C     c       0.000566     -0.000494      0.001928      0.000000
     18 C     c       0.001308     -0.000075      0.005411      0.000000
     19 C     c       0.001778     -0.001145     -0.002019      0.000000
     20 C     c      -0.001839     -0.002559      0.003186      0.000000
     21 C     c      -0.002471     -0.002205      0.001612      0.000000
     22 C     c       0.000806     -0.000076      0.001101      0.000000
     23 C     c      -0.001274     -0.000712      0.002726      0.000000
     24 C     c       0.002346     -0.001812      0.004752      0.000000
     25 C     c      -0.002314     -0.006598      0.001548      0.000000
     26 C     c       0.001024      0.000448     -0.000068      0.000000
     27 C     c      -0.000162      0.000526      0.001097      0.000000
     28 C     c       0.003075     -0.002236      0.001983      0.000000
     29 C     c       0.001905      0.002457     -0.001602      0.000000
     30 C     c       0.000896     -0.003502      0.002292      0.000000
     31 C     c       0.001856      0.000290     -0.001324      0.000000
     32 C     c       0.001762      0.000540      0.001515      0.000000
     33 C     c       0.000754     -0.000972     -0.000532      0.000000
     34 C     c      -0.002340      0.000821      0.000245      0.000000
     35 C     c       0.002807      0.001488      0.000557      0.000000
     36 C     c       0.000901      0.001076     -0.000603      0.000000
     37 C     c       0.006089      0.001042     -0.000572      0.000000
     38 C     c      -0.000027      0.003844     -0.000529      0.000000
     39 C     c       0.000669      0.000085      0.000297      0.000000
     40 C     c      -0.002130     -0.004574     -0.000915      0.000000
     41 C     c      -0.001155      0.001007      0.003042      0.000000
     42 C     c       0.002474     -0.001058      0.001823      0.000000
     43 C     c       0.000984      0.002034      0.003371      0.000000
     44 C     c      -0.000391     -0.002874     -0.000852      0.000000
     45 C     c       0.000271      0.001506     -0.000317      0.000000
     46 C     c       0.001809      0.002429      0.004354      0.000000
     47 C     c       0.000970      0.001672      0.008323      0.000000
     48 C     c       0.003412      0.001034      0.001370      0.000000
     49 C     c      -0.001177     -0.004166      0.005852      0.000000
     50 C     c       0.002119      0.002105      0.003189      0.000000
     51 C     c       0.003921     -0.001280     -0.001532      0.000000
     52 C     c       0.005374     -0.001394     -0.001095      0.000000
     53 C     c      -0.000055      0.002564      0.000356      0.000000
     54 C     c      -0.001238     -0.002059     -0.000096      0.000000
     55 C     c       0.002363      0.006808      0.001097      0.000000
     56 C     c       0.001241     -0.001298      0.004655      0.000000
     57 C     c       0.004142     -0.000363      0.003296      0.000000
     58 C     c      -0.000273     -0.002310     -0.001236      0.000000
     59 C     c      -0.001621     -0.000998      0.002889      0.000000
     60 C     c       0.002431     -0.001847      0.001057      0.000000
     61 C     c       0.001210      0.000837      0.000666      0.000000
     62 C     c       0.001301     -0.004530      0.002120      0.000000
     63 C     c       0.004975      0.001789      0.001922      0.000000
     64 C     c      -0.000175     -0.001107      0.001240      0.000000
--------------------------------------------------------------------------------
  Maximum abs         0.006089      0.006808      0.008573      0.000000
--------------------------------------------------------------------------------


  Time to end of optimisation =       0.1830 seconds


  Peak dynamic memory used =       2.01 MB 


  Timing analysis for GULP :

--------------------------------------------------------------------------------
  Task / Subroutine                                          Time (Seconds)
--------------------------------------------------------------------------------
  Calculation of Brenner energy and derivatives                   0.1718
--------------------------------------------------------------------------------
  Total CPU time                                                  0.1830
--------------------------------------------------------------------------------


  CIF file written as opti_0.9850.cif


  Job Finished at 16:20.05 12th August     2020                               

