********************************************************************************
*                       GENERAL UTILITY LATTICE PROGRAM                        *
*                                 Julian Gale                                  *
*                       Curtin Institute for Computation                       *
*                    School of Molecular and Life Sciences                     *
*                    Curtin University, Western Australia                      *
********************************************************************************
* Version = 5.2.0 * Last modified =  17th December 2019                        *
********************************************************************************
*  optimise     - perform optimisation run                                     *
*  conv         - constant volume calculation                                  *
*  isotropic    - only isotropic cell expansion to be allowed                  *
*  lbfgs        - use limited memory BFGS update                               *
********************************************************************************
* ASE calculation                                                              *
********************************************************************************


  Job Started  at 14:11.23 31st July       2020                               

  Number of CPUs =     1


  Total number of configurations input =      1

********************************************************************************
*  Input for Configuration =   1                                               *
********************************************************************************

  Formula = C64                                                         

  Number of irreducible atoms/shells =      64


  Total number atoms/shells =      64

  Dimensionality = 3               :  Bulk   



  Cartesian lattice vectors (Angstroms) :

        7.518016    0.000000    0.000000
        0.000000    7.518016    0.000000
        0.000000    0.000000    7.518016

  Cell parameters (Angstroms/Degrees):

  a =       7.5180    alpha =  90.0000
  b =       7.5180    beta  =  90.0000
  c =       7.5180    gamma =  90.0000

  Initial cell volume =         424.922509 Angs**3

  Temperature of configuration =   0.00     K 

  Pressure of configuration =         0.000 GPa 

  Fractional coordinates of asymmetric unit :

--------------------------------------------------------------------------------
   No.  Atomic       x           y          z         Charge      Occupancy
        Label      (Frac)      (Frac)     (Frac)        (e)         (Frac)  
--------------------------------------------------------------------------------
      1 C     c    0.035780    0.526170    0.339890     0.00000    1.000000    
      2 C     c    0.229590 *  0.062470 *  0.070680 *   0.00000    1.000000    
      3 C     c    0.086740 *  0.372580 *  0.241540 *   0.00000    1.000000    
      4 C     c    0.849890 *  0.908360 *  0.422460 *   0.00000    1.000000    
      5 C     c    0.441280 *  0.873720 *  0.947590 *   0.00000    1.000000    
      6 C     c    0.787440 *  0.429530 *  0.218620 *   0.00000    1.000000    
      7 C     c    0.901960 *  0.595110 *  0.684440 *   0.00000    1.000000    
      8 C     c    0.792250 *  0.510990 *  0.553950 *   0.00000    1.000000    
      9 C     c    0.109330 *  0.341370 *  0.597450 *   0.00000    1.000000    
     10 C     c    0.368560 *  0.720100 *  0.087270 *   0.00000    1.000000    
     11 C     c    0.859240 *  0.209770 *  0.708270 *   0.00000    1.000000    
     12 C     c    0.544100 *  0.861310 *  0.508880 *   0.00000    1.000000    
     13 C     c    0.399810 *  0.199970 *  0.585870 *   0.00000    1.000000    
     14 C     c    0.169580 *  0.946440 *  0.765170 *   0.00000    1.000000    
     15 C     c    0.498500 *  0.562480 *  0.365890 *   0.00000    1.000000    
     16 C     c    0.950810 *  0.898420 *  0.079280 *   0.00000    1.000000    
     17 C     c    0.116990 *  0.779030 *  0.831300 *   0.00000    1.000000    
     18 C     c    0.273570 *  0.686230 *  0.563680 *   0.00000    1.000000    
     19 C     c    0.707320 *  0.344640 *  0.642410 *   0.00000    1.000000    
     20 C     c    0.019610 *  0.197340 *  0.239350 *   0.00000    1.000000    
     21 C     c    0.914960 *  0.113770 *  0.392490 *   0.00000    1.000000    
     22 C     c    0.837630 *  0.564860 *  0.366020 *   0.00000    1.000000    
     23 C     c    0.432980 *  0.789650 *  0.634100 *   0.00000    1.000000    
     24 C     c    0.769260 *  0.240060 *  0.292990 *   0.00000    1.000000    
     25 C     c    0.643930 *  0.119910 *  0.979490 *   0.00000    1.000000    
     26 C     c    0.485730 *  0.554490 *  0.047940 *   0.00000    1.000000    
     27 C     c    0.577200 *  0.241410 *  0.526410 *   0.00000    1.000000    
     28 C     c    0.601420 *  0.945080 *  0.073870 *   0.00000    1.000000    
     29 C     c    0.456300 *  0.873520 *  0.209870 *   0.00000    1.000000    
     30 C     c    0.305050 *  0.022220 *  0.885080 *   0.00000    1.000000    
     31 C     c    0.783880 *  0.070020 *  0.850190 *   0.00000    1.000000    
     32 C     c    0.845150 *  0.726130 *  0.803670 *   0.00000    1.000000    
     33 C     c    0.277250 *  0.359650 *  0.526010 *   0.00000    1.000000    
     34 C     c    0.192240 *  0.651360 *  0.147020 *   0.00000    1.000000    
     35 C     c    0.059800 *  0.466190 *  0.745160 *   0.00000    1.000000    
     36 C     c    0.299400 *  0.059080 *  0.468830 *   0.00000    1.000000    
     37 C     c    0.158120 *  0.690640 *  0.365300 *   0.00000    1.000000    
     38 C     c    0.510810 *  0.270950 *  0.909310 *   0.00000    1.000000    
     39 C     c    0.030260 *  0.084690 *  0.074760 *   0.00000    1.000000    
     40 C     c    0.731350 *  0.898160 *  0.760240 *   0.00000    1.000000    
     41 C     c    0.354530 *  0.518850 *  0.467700 *   0.00000    1.000000    
     42 C     c    0.050530 *  0.856680 *  0.457030 *   0.00000    1.000000    
     43 C     c    0.032710 *  0.391020 *  0.935900 *   0.00000    1.000000    
     44 C     c    0.198350 *  0.432400 *  0.080030 *   0.00000    1.000000    
     45 C     c    0.156630 *  0.641120 *  0.718440 *   0.00000    1.000000    
     46 C     c    0.878180 *  0.482020 *  0.050850 *   0.00000    1.000000    
     47 C     c    0.770670 *  0.816050 *  0.111880 *   0.00000    1.000000    
     48 C     c    0.956570 *  0.195360 *  0.913820 *   0.00000    1.000000    
     49 C     c    0.760580 *  0.757830 *  0.309070 *   0.00000    1.000000    
     50 C     c    0.784460 *  0.652370 *  0.979350 *   0.00000    1.000000    
     51 C     c    0.134860 *  0.001610 *  0.567360 *   0.00000    1.000000    
     52 C     c    0.449340 *  0.221950 *  0.230520 *   0.00000    1.000000    
     53 C     c    0.398790 *  0.353120 *  0.068820 *   0.00000    1.000000    
     54 C     c    0.340680 *  0.047910 *  0.256940 *   0.00000    1.000000    
     55 C     c    0.598360 *  0.221420 *  0.346800 *   0.00000    1.000000    
     56 C     c    0.391290 *  0.170980 *  0.786620 *   0.00000    1.000000    
     57 C     c    0.608190 *  0.415170 *  0.804460 *   0.00000    1.000000    
     58 C     c    0.706980 *  0.925380 *  0.564050 *   0.00000    1.000000    
     59 C     c    0.070550 *  0.762920 *  0.012520 *   0.00000    1.000000    
     60 C     c    0.578950 *  0.471410 *  0.218930 *   0.00000    1.000000    
     61 C     c    0.558470 *  0.760510 *  0.348430 *   0.00000    1.000000    
     62 C     c    0.998680 *  0.176400 *  0.572620 *   0.00000    1.000000    
     63 C     c    0.602800 *  0.596610 *  0.896230 *   0.00000    1.000000    
     64 C     c    0.545760 *  0.785700 *  0.804830 *   0.00000    1.000000    
--------------------------------------------------------------------------------


  Constraints : 

--------------------------------------------------------------------------------
  Constraint no.      Unconstrained     Constrained    Coefficient    Offset
                         Variable         Variable
--------------------------------------------------------------------------------
           1              Strain 1        Strain 2       1.00000      0.0000
           2              Strain 1        Strain 3       1.00000      0.0000
--------------------------------------------------------------------------------


********************************************************************************
*  General input information                                                   *
********************************************************************************

  Species output for all configurations : 

--------------------------------------------------------------------------------
  Species    Type    Atomic    Atomic    Charge       Radii (Angs)     Library
                     Number     Mass       (e)     Cova   Ionic  VDW   Symbol
--------------------------------------------------------------------------------
    C        Core        6      12.01   0.000000   0.770  0.000  1.530          
--------------------------------------------------------------------------------


  Lattice summation method               =    Ewald          (3-D)
                                         =    Parry          (2-D)
                                         =    Saunders et al (1-D)
  Accuracy factor for lattice sums       =   12.000


  Analytic derivatives to be used

  Time limit = Infinity

  Maximum range for interatomic potentials =    100000.000000 Angstroms

  Brenner et al 2002 potential to be used with explicit splines for P


********************************************************************************
*  Output for configuration   1                                                *
********************************************************************************


  Components of energy : 

--------------------------------------------------------------------------------
  Interatomic potentials     =           0.00000000 eV    
  Brenner potentials         =        -421.94461410 eV    
  Monopole - monopole (real) =           0.00000000 eV    
  Monopole - monopole (recip)=           0.00000000 eV    
  Monopole - monopole (total)=           0.00000000 eV    
--------------------------------------------------------------------------------
  Total lattice energy       =        -421.94461410 eV    
--------------------------------------------------------------------------------
  Total lattice energy       =          -40711.2052 kJ/(mole unit cells)
--------------------------------------------------------------------------------


  Number of variables =      189

  Maximum number of calculations  =          2000
  Maximum Hessian update interval =            10
  Maximum step size               =   1.000000000
  Maximum parameter tolerance     =   0.000010000
  Maximum function  tolerance     =   0.000010000
  Maximum gradient  tolerance     =   0.001000000
  Maximum gradient  component     =   0.010000000

  Maximum LM gradient tolerance   =   0.900000000
  Symmetry not applied to optimisation

  Limited Memory BFGS to be used of order   10

  BFGS hessian update to be used

  Lower half triangular hessian to be used

  Start of bulk optimisation :

  Cycle:      0 Energy:      -421.944614  Gnorm:      0.525773  CPU:    0.041
  Cycle:      1 Energy:      -422.071628  Gnorm:      0.455692  CPU:    0.085
  Cycle:      2 Energy:      -422.659995  Gnorm:      0.247369  CPU:    0.109
  Cycle:      3 Energy:      -422.813151  Gnorm:      0.163991  CPU:    0.119
  Cycle:      4 Energy:      -422.910846  Gnorm:      0.119479  CPU:    0.125
  Cycle:      5 Energy:      -422.991932  Gnorm:      0.101333  CPU:    0.150
  Cycle:      6 Energy:      -423.014560  Gnorm:      0.214242  CPU:    0.159
  Cycle:      7 Energy:      -423.073209  Gnorm:      0.067016  CPU:    0.180
  Cycle:      8 Energy:      -423.087275  Gnorm:      0.060061  CPU:    0.210
  Cycle:      9 Energy:      -423.110911  Gnorm:      0.062823  CPU:    0.246
  Cycle:     10 Energy:      -423.138657  Gnorm:      0.061956  CPU:    0.255
  Cycle:     11 Energy:      -423.146339  Gnorm:      0.098726  CPU:    0.261
  Cycle:     12 Energy:      -423.172909  Gnorm:      0.046034  CPU:    0.287
  Cycle:     13 Energy:      -423.179575  Gnorm:      0.061962  CPU:    0.295
  Cycle:     14 Energy:      -423.187204  Gnorm:      0.032356  CPU:    0.320
  Cycle:     15 Energy:      -423.194266  Gnorm:      0.028540  CPU:    0.330
  Cycle:     16 Energy:      -423.200996  Gnorm:      0.038652  CPU:    0.336
  Cycle:     17 Energy:      -423.207600  Gnorm:      0.062052  CPU:    0.361
  Cycle:     18 Energy:      -423.214150  Gnorm:      0.025662  CPU:    0.370
  Cycle:     19 Energy:      -423.216730  Gnorm:      0.020195  CPU:    0.376
  Cycle:     20 Energy:      -423.219156  Gnorm:      0.023024  CPU:    0.402
  Cycle:     21 Energy:      -423.221078  Gnorm:      0.032881  CPU:    0.411
  Cycle:     22 Energy:      -423.222630  Gnorm:      0.015042  CPU:    0.417
  Cycle:     23 Energy:      -423.223470  Gnorm:      0.013137  CPU:    0.443
  Cycle:     24 Energy:      -423.224217  Gnorm:      0.017542  CPU:    0.471
  Cycle:     25 Energy:      -423.225555  Gnorm:      0.015742  CPU:    0.491
  Cycle:     26 Energy:      -423.226639  Gnorm:      0.014900  CPU:    0.503
  Cycle:     27 Energy:      -423.227409  Gnorm:      0.009803  CPU:    0.525
  Cycle:     28 Energy:      -423.227969  Gnorm:      0.010725  CPU:    0.532
  Cycle:     29 Energy:      -423.228783  Gnorm:      0.015126  CPU:    0.547
  Cycle:     30 Energy:      -423.229565  Gnorm:      0.013265  CPU:    0.565
  Cycle:     31 Energy:      -423.230168  Gnorm:      0.010717  CPU:    0.573
  Cycle:     32 Energy:      -423.231552  Gnorm:      0.010511  CPU:    0.591
  Cycle:     33 Energy:      -423.232269  Gnorm:      0.026482  CPU:    0.606
  Cycle:     34 Energy:      -423.233310  Gnorm:      0.013132  CPU:    0.613
  Cycle:     35 Energy:      -423.234143  Gnorm:      0.011880  CPU:    0.635
  Cycle:     36 Energy:      -423.235202  Gnorm:      0.013310  CPU:    0.647
  Cycle:     37 Energy:      -423.236872  Gnorm:      0.015469  CPU:    0.654
  Cycle:     38 Energy:      -423.237756  Gnorm:      0.022087  CPU:    0.684
  Cycle:     39 Energy:      -423.239244  Gnorm:      0.011294  CPU:    0.691
  Cycle:     40 Energy:      -423.240047  Gnorm:      0.010178  CPU:    0.705
  Cycle:     41 Energy:      -423.240843  Gnorm:      0.019178  CPU:    0.725
  Cycle:     42 Energy:      -423.241541  Gnorm:      0.011186  CPU:    0.732
  Cycle:     43 Energy:      -423.242037  Gnorm:      0.009120  CPU:    0.748
  Cycle:     44 Energy:      -423.242705  Gnorm:      0.010075  CPU:    0.765
  Cycle:     45 Energy:      -423.243174  Gnorm:      0.017022  CPU:    0.772
  Cycle:     46 Energy:      -423.243738  Gnorm:      0.009719  CPU:    0.790
  Cycle:     47 Energy:      -423.244041  Gnorm:      0.006065  CPU:    0.806
  Cycle:     48 Energy:      -423.244304  Gnorm:      0.005788  CPU:    0.813
  Cycle:     49 Energy:      -423.244613  Gnorm:      0.008806  CPU:    0.832
  Cycle:     50 Energy:      -423.244889  Gnorm:      0.004474  CPU:    0.846
  Cycle:     51 Energy:      -423.244991  Gnorm:      0.003860  CPU:    0.853
  Cycle:     52 Energy:      -423.245132  Gnorm:      0.008782  CPU:    0.875
  Cycle:     53 Energy:      -423.245248  Gnorm:      0.004304  CPU:    0.887
  Cycle:     54 Energy:      -423.245314  Gnorm:      0.003282  CPU:    0.894
  Cycle:     55 Energy:      -423.245391  Gnorm:      0.004837  CPU:    0.916
  Cycle:     56 Energy:      -423.245446  Gnorm:      0.003794  CPU:    0.927
  Cycle:     57 Energy:      -423.245477  Gnorm:      0.002890  CPU:    0.934
  Cycle:     58 Energy:      -423.245545  Gnorm:      0.003017  CPU:    0.959
  Cycle:     59 Energy:      -423.245565  Gnorm:      0.006998  CPU:    0.986
  Cycle:     60 Energy:      -423.245610  Gnorm:      0.003225  CPU:    0.995
  Cycle:     61 Energy:      -423.245651  Gnorm:      0.002438  CPU:    1.001
  Cycle:     62 Energy:      -423.245694  Gnorm:      0.003019  CPU:    1.027
  Cycle:     63 Energy:      -423.245765  Gnorm:      0.003256  CPU:    1.036
  Cycle:     64 Energy:      -423.245832  Gnorm:      0.006345  CPU:    1.062
  Cycle:     65 Energy:      -423.245958  Gnorm:      0.003854  CPU:    1.073
  Cycle:     66 Energy:      -423.246036  Gnorm:      0.004021  CPU:    1.079
  Cycle:     67 Energy:      -423.246112  Gnorm:      0.003689  CPU:    1.104
  Cycle:     68 Energy:      -423.246196  Gnorm:      0.003659  CPU:    1.113
  Cycle:     69 Energy:      -423.246250  Gnorm:      0.006186  CPU:    1.131
  Cycle:     70 Energy:      -423.246368  Gnorm:      0.004057  CPU:    1.150
  Cycle:     71 Energy:      -423.246526  Gnorm:      0.003369  CPU:    1.157
  Cycle:     72 Energy:      -423.246606  Gnorm:      0.006278  CPU:    1.175
  Cycle:     73 Energy:      -423.246791  Gnorm:      0.004423  CPU:    1.191
  Cycle:     74 Energy:      -423.246928  Gnorm:      0.004755  CPU:    1.198
  Cycle:     75 Energy:      -423.247043  Gnorm:      0.004716  CPU:    1.218
  Cycle:     76 Energy:      -423.247138  Gnorm:      0.004235  CPU:    1.231
  Cycle:     77 Energy:      -423.247241  Gnorm:      0.003858  CPU:    1.238
  Cycle:     78 Energy:      -423.247311  Gnorm:      0.008586  CPU:    1.259
  Cycle:     79 Energy:      -423.247422  Gnorm:      0.003603  CPU:    1.271
  Cycle:     80 Energy:      -423.247492  Gnorm:      0.003192  CPU:    1.278
  Cycle:     81 Energy:      -423.247568  Gnorm:      0.003330  CPU:    1.302
  Cycle:     82 Energy:      -423.247664  Gnorm:      0.004197  CPU:    1.312
  Cycle:     83 Energy:      -423.247689  Gnorm:      0.002817  CPU:    1.330
  Cycle:     84 Energy:      -423.247713  Gnorm:      0.001927  CPU:    1.349
  Cycle:     85 Energy:      -423.247740  Gnorm:      0.001892  CPU:    1.357
  Cycle:     86 Energy:      -423.247760  Gnorm:      0.004599  CPU:    1.373
  Cycle:     87 Energy:      -423.247789  Gnorm:      0.002146  CPU:    1.390
  Cycle:     88 Energy:      -423.247802  Gnorm:      0.001423  CPU:    1.397
  Cycle:     89 Energy:      -423.247822  Gnorm:      0.001407  CPU:    1.417
  Cycle:     90 Energy:      -423.247838  Gnorm:      0.001481  CPU:    1.431
  Cycle:     91 Energy:      -423.247846  Gnorm:      0.004196  CPU:    1.438
  Cycle:     92 Energy:      -423.247866  Gnorm:      0.001175  CPU:    1.461
  Cycle:     93 Energy:      -423.247868  Gnorm:      0.000896  CPU:    1.489
  Cycle:     94 Energy:      -423.247873  Gnorm:      0.001068  CPU:    1.499
  Cycle:     95 Energy:      -423.247873  Gnorm:      0.002022  CPU:    1.505
  Cycle:     96 Energy:      -423.247881  Gnorm:      0.000914  CPU:    1.531
  Cycle:     97 Energy:      -423.247888  Gnorm:      0.000860  CPU:    1.539
  Cycle:     98 Energy:      -423.247894  Gnorm:      0.000976  CPU:    1.545
  Cycle:     99 Energy:      -423.247903  Gnorm:      0.001109  CPU:    1.571
  Cycle:    100 Energy:      -423.247910  Gnorm:      0.001899  CPU:    1.583
  Cycle:    101 Energy:      -423.247919  Gnorm:      0.001138  CPU:    1.608
  Cycle:    102 Energy:      -423.247921  Gnorm:      0.001770  CPU:    1.630
  Cycle:    103 Energy:      -423.247929  Gnorm:      0.001024  CPU:    1.642
  Cycle:    104 Energy:      -423.247937  Gnorm:      0.001088  CPU:    1.649
  Cycle:    105 Energy:      -423.247951  Gnorm:      0.001202  CPU:    1.673
  Cycle:    106 Energy:      -423.247961  Gnorm:      0.002511  CPU:    1.686
  Cycle:    107 Energy:      -423.247970  Gnorm:      0.000925  CPU:    1.710
  Cycle:    108 Energy:      -423.247974  Gnorm:      0.000871  CPU:    1.719
  Cycle:    109 Energy:      -423.247978  Gnorm:      0.000960  CPU:    1.725
  Cycle:    110 Energy:      -423.247983  Gnorm:      0.002311  CPU:    1.751
  Cycle:    111 Energy:      -423.247990  Gnorm:      0.000717  CPU:    1.760
  Cycle:    112 Energy:      -423.247993  Gnorm:      0.000649  CPU:    1.768
  Cycle:    113 Energy:      -423.247996  Gnorm:      0.000687  CPU:    1.792
  Cycle:    114 Energy:      -423.248002  Gnorm:      0.000930  CPU:    1.800
  Cycle:    115 Energy:      -423.248003  Gnorm:      0.000675  CPU:    1.827
  Cycle:    116 Energy:      -423.248003  Gnorm:      0.000460  CPU:    1.837
  Cycle:    117 Energy:      -423.248004  Gnorm:      0.000755  CPU:    1.844
  Cycle:    118 Energy:      -423.248005  Gnorm:      0.000349  CPU:    1.869
  Cycle:    119 Energy:      -423.248005  Gnorm:      0.000280  CPU:    1.878
  Cycle:    120 Energy:      -423.248006  Gnorm:      0.000313  CPU:    1.884
  Cycle:    121 Energy:      -423.248007  Gnorm:      0.000279  CPU:    1.910
  Cycle:    122 Energy:      -423.248007  Gnorm:      0.000288  CPU:    1.943


  **** Optimisation achieved ****


  Final energy =    -423.24800706 eV
  Final Gnorm  =       0.00014413

  Components of energy : 

--------------------------------------------------------------------------------
  Interatomic potentials     =           0.00000000 eV    
  Brenner potentials         =        -423.24800706 eV    
  Monopole - monopole (real) =           0.00000000 eV    
  Monopole - monopole (recip)=           0.00000000 eV    
  Monopole - monopole (total)=           0.00000000 eV    
--------------------------------------------------------------------------------
  Total lattice energy       =        -423.24800706 eV    
--------------------------------------------------------------------------------
  Total lattice energy       =          -40836.9627 kJ/(mole unit cells)
--------------------------------------------------------------------------------

  Final fractional coordinates of atoms :

--------------------------------------------------------------------------------
   No.  Atomic        x           y          z          Radius
        Label       (Frac)      (Frac)     (Frac)       (Angs) 
--------------------------------------------------------------------------------
     1  C     c     0.035780    0.526170    0.339890    0.000000
     2  C     c     0.239668    0.059509    0.072872    0.000000
     3  C     c     0.088708    0.374417    0.242698    0.000000
     4  C     c     0.858936    0.909152    0.416347    0.000000
     5  C     c     0.446103    0.863793    0.950567    0.000000
     6  C     c     0.784217    0.426686    0.214229    0.000000
     7  C     c     0.905238    0.585764    0.683580    0.000000
     8  C     c     0.793931    0.501377    0.553304    0.000000
     9  C     c     0.114026    0.329330    0.607061    0.000000
    10  C     c     0.369899    0.711316    0.089405    0.000000
    11  C     c     0.867149    0.206586    0.712524    0.000000
    12  C     c     0.547654    0.856488    0.512856    0.000000
    13  C     c     0.403715    0.189654    0.590177    0.000000
    14  C     c     0.172840    0.932259    0.771531    0.000000
    15  C     c     0.502359    0.559467    0.367334    0.000000
    16  C     c     0.957834    0.897343    0.084175    0.000000
    17  C     c     0.122090    0.766723    0.840481    0.000000
    18  C     c     0.280065    0.670049    0.570916    0.000000
    19  C     c     0.715537    0.332240    0.643031    0.000000
    20  C     c     0.028510    0.197936    0.239991    0.000000
    21  C     c     0.914053    0.116682    0.389994    0.000000
    22  C     c     0.835165    0.562621    0.364225    0.000000
    23  C     c     0.438882    0.778763    0.640160    0.000000
    24  C     c     0.773404    0.239975    0.285572    0.000000
    25  C     c     0.647787    0.113018    0.983195    0.000000
    26  C     c     0.483048    0.548488    0.047665    0.000000
    27  C     c     0.583956    0.229199    0.525859    0.000000
    28  C     c     0.606881    0.938255    0.077853    0.000000
    29  C     c     0.458160    0.863636    0.214240    0.000000
    30  C     c     0.314376    0.008484    0.888285    0.000000
    31  C     c     0.791443    0.062698    0.851037    0.000000
    32  C     c     0.847936    0.720053    0.799589    0.000000
    33  C     c     0.289519    0.348610    0.541916    0.000000
    34  C     c     0.189178    0.643525    0.157366    0.000000
    35  C     c     0.057274    0.458123    0.748830    0.000000
    36  C     c     0.306220    0.045953    0.476388    0.000000
    37  C     c     0.160675    0.688324    0.378667    0.000000
    38  C     c     0.518579    0.260557    0.913868    0.000000
    39  C     c     0.039069    0.083679    0.074764    0.000000
    40  C     c     0.741555    0.890905    0.760145    0.000000
    41  C     c     0.365233    0.506704    0.480197    0.000000
    42  C     c     0.050204    0.847787    0.462108    0.000000
    43  C     c     0.030519    0.388074    0.939165    0.000000
    44  C     c     0.201175    0.431047    0.077624    0.000000
    45  C     c     0.163268    0.628887    0.728560    0.000000
    46  C     c     0.877797    0.484424    0.046554    0.000000
    47  C     c     0.774183    0.813244    0.111932    0.000000
    48  C     c     0.966988    0.189016    0.916093    0.000000
    49  C     c     0.762793    0.754335    0.308505    0.000000
    50  C     c     0.788054    0.650807    0.979973    0.000000
    51  C     c     0.137461    0.989924    0.577976    0.000000
    52  C     c     0.446589    0.212310    0.231263    0.000000
    53  C     c     0.401009    0.341457    0.070455    0.000000
    54  C     c     0.341327    0.031373    0.262539    0.000000
    55  C     c     0.599334    0.216117    0.343408    0.000000
    56  C     c     0.401429    0.155820    0.789637    0.000000
    57  C     c     0.616251    0.403991    0.807807    0.000000
    58  C     c     0.715112    0.919198    0.565007    0.000000
    59  C     c     0.078818    0.760903    0.024430    0.000000
    60  C     c     0.579253    0.473359    0.215123    0.000000
    61  C     c     0.558537    0.756764    0.349680    0.000000
    62  C     c     0.006312    0.157944    0.570930    0.000000
    63  C     c     0.605590    0.588905    0.892466    0.000000
    64  C     c     0.552584    0.773531    0.807091    0.000000
--------------------------------------------------------------------------------

  Final internal derivatives :

--------------------------------------------------------------------------------
   No.  Atomic          a             b             c           Radius
        Label          (eV)          (eV)          (eV)        (eV/Angs)
--------------------------------------------------------------------------------
      1 C     c       0.000000      0.000000      0.000000      0.000000
      2 C     c       0.000872      0.001729      0.001735      0.000000
      3 C     c       0.000548      0.000856      0.001438      0.000000
      4 C     c       0.000974      0.001274     -0.001836      0.000000
      5 C     c       0.000994      0.000650     -0.005332      0.000000
      6 C     c      -0.005679     -0.001536     -0.000620      0.000000
      7 C     c       0.006397     -0.000074      0.001178      0.000000
      8 C     c       0.000131     -0.002177      0.000793      0.000000
      9 C     c       0.004021      0.000779      0.001301      0.000000
     10 C     c      -0.002540     -0.001265     -0.000768      0.000000
     11 C     c      -0.000877      0.003411      0.000749      0.000000
     12 C     c      -0.002403     -0.000024      0.000318      0.000000
     13 C     c       0.000308      0.001462     -0.002231      0.000000
     14 C     c      -0.004810      0.000917      0.004019      0.000000
     15 C     c       0.003259      0.000304      0.004028      0.000000
     16 C     c      -0.001872      0.001275      0.001010      0.000000
     17 C     c      -0.001713     -0.001364      0.001995      0.000000
     18 C     c       0.000383     -0.000499      0.001863      0.000000
     19 C     c      -0.000779     -0.000564     -0.001382      0.000000
     20 C     c       0.000811      0.000891      0.002205      0.000000
     21 C     c      -0.000874      0.001899      0.001920      0.000000
     22 C     c      -0.001847     -0.002816      0.000682      0.000000
     23 C     c      -0.002845      0.001324      0.001261      0.000000
     24 C     c      -0.000309     -0.002542     -0.002118      0.000000
     25 C     c      -0.000655      0.000073      0.001660      0.000000
     26 C     c       0.001030     -0.000223      0.001803      0.000000
     27 C     c       0.001139     -0.001400     -0.000151      0.000000
     28 C     c       0.000296      0.000271      0.001437      0.000000
     29 C     c      -0.000756      0.000049      0.002936      0.000000
     30 C     c       0.001590     -0.001084      0.000165      0.000000
     31 C     c      -0.000913      0.001257      0.000259      0.000000
     32 C     c      -0.000344      0.000312     -0.001911      0.000000
     33 C     c       0.003650      0.002995      0.001985      0.000000
     34 C     c      -0.003132      0.001131      0.005066      0.000000
     35 C     c       0.001473      0.000370      0.000837      0.000000
     36 C     c       0.000479     -0.001148     -0.000037      0.000000
     37 C     c      -0.002823     -0.000548     -0.003572      0.000000
     38 C     c      -0.000843     -0.000080      0.000347      0.000000
     39 C     c      -0.000609      0.000173      0.000432      0.000000
     40 C     c      -0.000846      0.001395      0.002489      0.000000
     41 C     c       0.000294      0.001895     -0.000289      0.000000
     42 C     c      -0.002424     -0.000125      0.003929      0.000000
     43 C     c      -0.002050      0.001934     -0.000947      0.000000
     44 C     c      -0.000048     -0.000255      0.001324      0.000000
     45 C     c      -0.005247     -0.002180      0.000643      0.000000
     46 C     c      -0.000953      0.000404      0.000570      0.000000
     47 C     c      -0.001426      0.001194     -0.001231      0.000000
     48 C     c       0.003725      0.003943     -0.001950      0.000000
     49 C     c       0.000512     -0.001889      0.000176      0.000000
     50 C     c       0.000620     -0.001287     -0.002908      0.000000
     51 C     c       0.000226     -0.001183      0.001679      0.000000
     52 C     c       0.004167      0.002362     -0.000285      0.000000
     53 C     c       0.002163     -0.001491      0.000103      0.000000
     54 C     c      -0.001461      0.006401     -0.002693      0.000000
     55 C     c       0.000661     -0.000091      0.001078      0.000000
     56 C     c       0.002055     -0.001562     -0.001752      0.000000
     57 C     c      -0.002437      0.000482     -0.001515      0.000000
     58 C     c      -0.001442     -0.002799      0.001055      0.000000
     59 C     c      -0.004227     -0.000788      0.001490      0.000000
     60 C     c      -0.002184      0.001957      0.002426      0.000000
     61 C     c      -0.000384      0.000645     -0.000246      0.000000
     62 C     c       0.000398      0.003096     -0.000718      0.000000
     63 C     c       0.001377      0.000411      0.001939      0.000000
     64 C     c      -0.000554      0.000772      0.001177      0.000000
--------------------------------------------------------------------------------
  Maximum abs         0.006397      0.006401      0.005332      0.000000
--------------------------------------------------------------------------------


  Time to end of optimisation =       1.9646 seconds


  Peak dynamic memory used =       2.01 MB 


  Timing analysis for GULP :

--------------------------------------------------------------------------------
  Task / Subroutine                                          Time (Seconds)
--------------------------------------------------------------------------------
  Calculation of Brenner energy and derivatives                   1.8979
--------------------------------------------------------------------------------
  Total CPU time                                                  1.9649
--------------------------------------------------------------------------------


  CIF file written as opti_0.9850.cif


  Job Finished at 14:11.25 31st July       2020                               

