********************************************************************************
*                       GENERAL UTILITY LATTICE PROGRAM                        *
*                                 Julian Gale                                  *
*                       Curtin Institute for Computation                       *
*                    School of Molecular and Life Sciences                     *
*                    Curtin University, Western Australia                      *
********************************************************************************
* Version = 5.2.0 * Last modified =  17th December 2019                        *
********************************************************************************
*  optimise     - perform optimisation run                                     *
*  conv         - constant volume calculation                                  *
*  isotropic    - only isotropic cell expansion to be allowed                  *
*  conjugate    - use conjugate gradients minimiser                            *
********************************************************************************
* ASE calculation                                                              *
********************************************************************************


  Job Started  at 23:34.42 10th August     2020                               

  Number of CPUs =     1


  Total number of configurations input =      1

********************************************************************************
*  Input for Configuration =   1                                               *
********************************************************************************

  Formula = C64                                                         

  Number of irreducible atoms/shells =      64


  Total number atoms/shells =      64

  Dimensionality = 3               :  Bulk   



  Cartesian lattice vectors (Angstroms) :

        7.570744    0.000000    0.000000
        0.000000    7.570744    0.000000
        0.000000    0.000000    7.570744

  Cell parameters (Angstroms/Degrees):

  a =       7.5707    alpha =  90.0000
  b =       7.5707    beta  =  90.0000
  c =       7.5707    gamma =  90.0000

  Initial cell volume =         433.926010 Angs**3

  Temperature of configuration =   0.00     K 

  Pressure of configuration =         0.000 GPa 

  Fractional coordinates of asymmetric unit :

--------------------------------------------------------------------------------
   No.  Atomic       x           y          z         Charge      Occupancy
        Label      (Frac)      (Frac)     (Frac)        (e)         (Frac)  
--------------------------------------------------------------------------------
      1 C     c    0.025100    0.587150    0.365320     0.00000    1.000000    
      2 C     c    0.261960 *  0.102350 *  0.107880 *   0.00000    1.000000    
      3 C     c    0.100080 *  0.438460 *  0.267700 *   0.00000    1.000000    
      4 C     c    0.878960 *  0.966820 *  0.452800 *   0.00000    1.000000    
      5 C     c    0.476970 *  0.917400 *  0.988740 *   0.00000    1.000000    
      6 C     c    0.786990 *  0.447150 *  0.220140 *   0.00000    1.000000    
      7 C     c    0.923040 *  0.637530 *  0.717050 *   0.00000    1.000000    
      8 C     c    0.810170 *  0.554570 *  0.590270 *   0.00000    1.000000    
      9 C     c    0.131790 *  0.380040 *  0.638710 *   0.00000    1.000000    
     10 C     c    0.404270 *  0.764550 *  0.117610 *   0.00000    1.000000    
     11 C     c    0.889700 *  0.256980 *  0.746610 *   0.00000    1.000000    
     12 C     c    0.569910 *  0.900620 *  0.557400 *   0.00000    1.000000    
     13 C     c    0.425650 *  0.240870 *  0.632440 *   0.00000    1.000000    
     14 C     c    0.200020 *  0.983730 *  0.798590 *   0.00000    1.000000    
     15 C     c    0.523060 *  0.608540 *  0.406760 *   0.00000    1.000000    
     16 C     c    0.987720 *  0.938200 *  0.121300 *   0.00000    1.000000    
     17 C     c    0.134680 *  0.821550 *  0.858210 *   0.00000    1.000000    
     18 C     c    0.347750 *  0.690110 *  0.662490 *   0.00000    1.000000    
     19 C     c    0.738190 *  0.384180 *  0.683430 *   0.00000    1.000000    
     20 C     c    0.046460 *  0.258110 *  0.266300 *   0.00000    1.000000    
     21 C     c    0.936080 *  0.173340 *  0.419850 *   0.00000    1.000000    
     22 C     c    0.843300 *  0.615880 *  0.414960 *   0.00000    1.000000    
     23 C     c    0.478470 *  0.818970 *  0.689890 *   0.00000    1.000000    
     24 C     c    0.794120 *  0.296780 *  0.327440 *   0.00000    1.000000    
     25 C     c    0.669440 *  0.161030 *  0.017330 *   0.00000    1.000000    
     26 C     c    0.520340 *  0.604650 *  0.088350 *   0.00000    1.000000    
     27 C     c    0.606080 *  0.280540 *  0.571440 *   0.00000    1.000000    
     28 C     c    0.633890 *  0.989520 *  0.119020 *   0.00000    1.000000    
     29 C     c    0.479160 *  0.916090 *  0.251290 *   0.00000    1.000000    
     30 C     c    0.339390 *  0.056680 *  0.923070 *   0.00000    1.000000    
     31 C     c    0.810280 *  0.113020 *  0.884120 *   0.00000    1.000000    
     32 C     c    0.867960 *  0.767490 *  0.838100 *   0.00000    1.000000    
     33 C     c    0.307470 *  0.395320 *  0.575810 *   0.00000    1.000000    
     34 C     c    0.226620 *  0.687030 *  0.123410 *   0.00000    1.000000    
     35 C     c    0.071610 *  0.510040 *  0.779400 *   0.00000    1.000000    
     36 C     c    0.326190 *  0.102150 *  0.509580 *   0.00000    1.000000    
     37 C     c    0.121970 *  0.741100 *  0.423810 *   0.00000    1.000000    
     38 C     c    0.542650 *  0.314790 *  0.957100 *   0.00000    1.000000    
     39 C     c    0.063420 *  0.131370 *  0.109250 *   0.00000    1.000000    
     40 C     c    0.769650 *  0.942180 *  0.796810 *   0.00000    1.000000    
     41 C     c    0.392750 *  0.558230 *  0.534200 *   0.00000    1.000000    
     42 C     c    0.068190 *  0.896530 *  0.498720 *   0.00000    1.000000    
     43 C     c    0.001700 *  0.428840 *  0.954850 *   0.00000    1.000000    
     44 C     c    0.238470 *  0.500650 *  0.156150 *   0.00000    1.000000    
     45 C     c    0.195640 *  0.672080 *  0.768160 *   0.00000    1.000000    
     46 C     c    0.892950 *  0.519810 *  0.081840 *   0.00000    1.000000    
     47 C     c    0.799970 *  0.863030 *  0.155410 *   0.00000    1.000000    
     48 C     c    0.985830 *  0.222020 *  0.949250 *   0.00000    1.000000    
     49 C     c    0.775600 *  0.805370 *  0.350130 *   0.00000    1.000000    
     50 C     c    0.821570 *  0.700470 *  0.025360 *   0.00000    1.000000    
     51 C     c    0.158980 *  0.041530 *  0.607950 *   0.00000    1.000000    
     52 C     c    0.476040 *  0.263670 *  0.276630 *   0.00000    1.000000    
     53 C     c    0.434680 *  0.399100 *  0.122780 *   0.00000    1.000000    
     54 C     c    0.365660 *  0.086630 *  0.294640 *   0.00000    1.000000    
     55 C     c    0.624160 *  0.266270 *  0.391700 *   0.00000    1.000000    
     56 C     c    0.422290 *  0.211340 *  0.832230 *   0.00000    1.000000    
     57 C     c    0.643820 *  0.455720 *  0.850330 *   0.00000    1.000000    
     58 C     c    0.737120 *  0.967710 *  0.602660 *   0.00000    1.000000    
     59 C     c    0.099210 *  0.802470 *  0.043610 *   0.00000    1.000000    
     60 C     c    0.617730 *  0.536110 *  0.254430 *   0.00000    1.000000    
     61 C     c    0.572990 *  0.809180 *  0.390000 *   0.00000    1.000000    
     62 C     c    0.027000 *  0.208410 *  0.602340 *   0.00000    1.000000    
     63 C     c    0.640770 *  0.641500 *  0.932270 *   0.00000    1.000000    
     64 C     c    0.588560 *  0.824650 *  0.852350 *   0.00000    1.000000    
--------------------------------------------------------------------------------


  Constraints : 

--------------------------------------------------------------------------------
  Constraint no.      Unconstrained     Constrained    Coefficient    Offset
                         Variable         Variable
--------------------------------------------------------------------------------
           1              Strain 1        Strain 2       1.00000      0.0000
           2              Strain 1        Strain 3       1.00000      0.0000
--------------------------------------------------------------------------------


********************************************************************************
*  General input information                                                   *
********************************************************************************

  Species output for all configurations : 

--------------------------------------------------------------------------------
  Species    Type    Atomic    Atomic    Charge       Radii (Angs)     Library
                     Number     Mass       (e)     Cova   Ionic  VDW   Symbol
--------------------------------------------------------------------------------
    C        Core        6      12.01   0.000000   0.770  0.000  1.530          
--------------------------------------------------------------------------------


  Lattice summation method               =    Ewald          (3-D)
                                         =    Parry          (2-D)
                                         =    Saunders et al (1-D)
  Accuracy factor for lattice sums       =   12.000


  Analytic derivatives to be used

  Time limit = Infinity

  Maximum range for interatomic potentials =    100000.000000 Angstroms

  Brenner et al 2002 potential to be used with explicit splines for P


********************************************************************************
*  Output for configuration   1                                                *
********************************************************************************


  Components of energy : 

--------------------------------------------------------------------------------
  Interatomic potentials     =           0.00000000 eV    
  Brenner potentials         =        -428.45847643 eV    
  Monopole - monopole (real) =           0.00000000 eV    
  Monopole - monopole (recip)=           0.00000000 eV    
  Monopole - monopole (total)=           0.00000000 eV    
--------------------------------------------------------------------------------
  Total lattice energy       =        -428.45847643 eV    
--------------------------------------------------------------------------------
  Total lattice energy       =          -41339.6934 kJ/(mole unit cells)
--------------------------------------------------------------------------------


  Number of variables =      189

  Maximum number of calculations  =          2000
  Maximum Hessian update interval =            10
  Maximum step size               =   1.000000000
  Maximum parameter tolerance     =   0.000010000
  Maximum function  tolerance     =   0.000010000
  Maximum gradient  tolerance     =   0.001000000
  Maximum gradient  component     =   0.010000000

  Symmetry not applied to optimisation

  Conjugate gradient optimiser to be used

  Lower half triangular hessian to be used

  Start of bulk optimisation :

  Cycle:      0 Energy:      -428.458476  Gnorm:      0.013516  CPU:    0.017
  Cycle:      1 Energy:      -428.458650  Gnorm:      0.003528  CPU:    0.061
  Cycle:      2 Energy:      -428.458679  Gnorm:      0.003325  CPU:    0.072
  Cycle:      3 Energy:      -428.458717  Gnorm:      0.002733  CPU:    0.078
  Cycle:      4 Energy:      -428.458742  Gnorm:      0.002856  CPU:    0.102
  Cycle:      5 Energy:      -428.458756  Gnorm:      0.001897  CPU:    0.112
  Cycle:      6 Energy:      -428.458777  Gnorm:      0.001973  CPU:    0.120
  Cycle:      7 Energy:      -428.458786  Gnorm:      0.001426  CPU:    0.125
  Cycle:      8 Energy:      -428.458795  Gnorm:      0.001109  CPU:    0.151
  Cycle:      9 Energy:      -428.458800  Gnorm:      0.001383  CPU:    0.160
  Cycle:     10 Energy:      -428.458801  Gnorm:      0.000589  CPU:    0.166
  Cycle:     11 Energy:      -428.458802  Gnorm:      0.000509  CPU:    0.183
  Cycle:     12 Energy:      -428.458802  Gnorm:      0.000476  CPU:    0.196
  Cycle:     13 Energy:      -428.458802  Gnorm:      0.000454  CPU:    0.203
  Cycle:     14 Energy:      -428.458803  Gnorm:      0.000435  CPU:    0.216
  Cycle:     15 Energy:      -428.458803  Gnorm:      0.000424  CPU:    0.234
  Cycle:     16 Energy:      -428.458803  Gnorm:      0.000420  CPU:    0.241
  Cycle:     17 Energy:      -428.458805  Gnorm:      0.000406  CPU:    0.266
  Cycle:     18 Energy:      -428.458807  Gnorm:      0.000445  CPU:    0.277
  Cycle:     19 Energy:      -428.458808  Gnorm:      0.000473  CPU:    0.285
  Cycle:     20 Energy:      -428.458809  Gnorm:      0.000649  CPU:    0.290
  Cycle:     21 Energy:      -428.458810  Gnorm:      0.000909  CPU:    0.317
  Cycle:     22 Energy:      -428.458810  Gnorm:      0.000433  CPU:    0.325
  Cycle:     23 Energy:      -428.458810  Gnorm:      0.000692  CPU:    0.335
  Cycle:     24 Energy:      -428.458810  Gnorm:      0.000692  CPU:    0.368
  Cycle:     25 Energy:      -428.458810  Gnorm:      0.000692  CPU:    0.378
  Cycle:     26 Energy:      -428.458810  Gnorm:      0.000628  CPU:    0.407
  Cycle:     27 Energy:      -428.458810  Gnorm:      0.000577  CPU:    0.415
  Cycle:     28 Energy:      -428.458810  Gnorm:      0.000639  CPU:    0.425


  **** Optimisation achieved ****


  Final energy =    -428.45881010 eV
  Final Gnorm  =       0.00063856

  Components of energy : 

--------------------------------------------------------------------------------
  Interatomic potentials     =           0.00000000 eV    
  Brenner potentials         =        -428.45881010 eV    
  Monopole - monopole (real) =           0.00000000 eV    
  Monopole - monopole (recip)=           0.00000000 eV    
  Monopole - monopole (total)=           0.00000000 eV    
--------------------------------------------------------------------------------
  Total lattice energy       =        -428.45881010 eV    
--------------------------------------------------------------------------------
  Total lattice energy       =          -41339.7256 kJ/(mole unit cells)
--------------------------------------------------------------------------------

  Final fractional coordinates of atoms :

--------------------------------------------------------------------------------
   No.  Atomic        x           y          z          Radius
        Label       (Frac)      (Frac)     (Frac)       (Angs) 
--------------------------------------------------------------------------------
     1  C     c     0.025100    0.587150    0.365320    0.000000
     2  C     c     0.262016    0.102338    0.107906    0.000000
     3  C     c     0.100097    0.438394    0.267739    0.000000
     4  C     c     0.878951    0.966769    0.452785    0.000000
     5  C     c     0.476954    0.917449    0.988698    0.000000
     6  C     c     0.787040    0.447057    0.220063    0.000000
     7  C     c     0.923135    0.637598    0.717009    0.000000
     8  C     c     0.810135    0.554637    0.590271    0.000000
     9  C     c     0.131742    0.380005    0.638628    0.000000
    10  C     c     0.404237    0.764569    0.117587    0.000000
    11  C     c     0.889747    0.257053    0.746626    0.000000
    12  C     c     0.569805    0.900801    0.557395    0.000000
    13  C     c     0.425647    0.240839    0.632438    0.000000
    14  C     c     0.199918    0.983755    0.798620    0.000000
    15  C     c     0.523114    0.608544    0.406760    0.000000
    16  C     c     0.987679    0.938215    0.121381    0.000000
    17  C     c     0.134524    0.821550    0.858211    0.000000
    18  C     c     0.347683    0.690144    0.662462    0.000000
    19  C     c     0.738210    0.384207    0.683418    0.000000
    20  C     c     0.046581    0.258004    0.266367    0.000000
    21  C     c     0.936076    0.173258    0.419820    0.000000
    22  C     c     0.843268    0.615913    0.414935    0.000000
    23  C     c     0.478374    0.819081    0.689909    0.000000
    24  C     c     0.794108    0.296642    0.327347    0.000000
    25  C     c     0.669470    0.161141    0.017431    0.000000
    26  C     c     0.520361    0.604664    0.088297    0.000000
    27  C     c     0.606113    0.280487    0.571439    0.000000
    28  C     c     0.633838    0.989589    0.119072    0.000000
    29  C     c     0.479073    0.916088    0.251341    0.000000
    30  C     c     0.339357    0.056706    0.923056    0.000000
    31  C     c     0.810318    0.113087    0.884190    0.000000
    32  C     c     0.868115    0.767604    0.838110    0.000000
    33  C     c     0.307452    0.395279    0.575699    0.000000
    34  C     c     0.226572    0.686999    0.123421    0.000000
    35  C     c     0.071621    0.509956    0.779384    0.000000
    36  C     c     0.326199    0.102069    0.509617    0.000000
    37  C     c     0.122113    0.741051    0.423780    0.000000
    38  C     c     0.542618    0.314839    0.957116    0.000000
    39  C     c     0.063473    0.131304    0.109290    0.000000
    40  C     c     0.769666    0.942254    0.796833    0.000000
    41  C     c     0.392749    0.558235    0.534166    0.000000
    42  C     c     0.068202    0.896469    0.498743    0.000000
    43  C     c     0.001853    0.428809    0.954870    0.000000
    44  C     c     0.238453    0.500579    0.156099    0.000000
    45  C     c     0.195557    0.672081    0.768137    0.000000
    46  C     c     0.893083    0.519829    0.081854    0.000000
    47  C     c     0.799904    0.863087    0.155472    0.000000
    48  C     c     0.985958    0.221972    0.949290    0.000000
    49  C     c     0.775564    0.805366    0.350167    0.000000
    50  C     c     0.821669    0.700516    0.025384    0.000000
    51  C     c     0.158959    0.041501    0.607965    0.000000
    52  C     c     0.475935    0.263660    0.276638    0.000000
    53  C     c     0.434574    0.399085    0.122775    0.000000
    54  C     c     0.365567    0.086607    0.294754    0.000000
    55  C     c     0.624136    0.266190    0.391663    0.000000
    56  C     c     0.422253    0.211388    0.832229    0.000000
    57  C     c     0.643818    0.455760    0.850318    0.000000
    58  C     c     0.737083    0.967865    0.602666    0.000000
    59  C     c     0.099094    0.802421    0.043647    0.000000
    60  C     c     0.617777    0.536091    0.254416    0.000000
    61  C     c     0.572949    0.809222    0.390041    0.000000
    62  C     c     0.026984    0.208325    0.602300    0.000000
    63  C     c     0.640850    0.641583    0.932228    0.000000
    64  C     c     0.588597    0.824714    0.852322    0.000000
--------------------------------------------------------------------------------

  Final internal derivatives :

--------------------------------------------------------------------------------
   No.  Atomic          a             b             c           Radius
        Label          (eV)          (eV)          (eV)        (eV/Angs)
--------------------------------------------------------------------------------
      1 C     c       0.000000      0.000000      0.000000      0.000000
      2 C     c      -0.005934      0.002133     -0.000798      0.000000
      3 C     c      -0.001463     -0.001555     -0.004776      0.000000
      4 C     c       0.000785     -0.001099     -0.004336      0.000000
      5 C     c       0.003203     -0.002975      0.047042      0.000000
      6 C     c       0.000592      0.007101      0.019318      0.000000
      7 C     c      -0.010170     -0.005609     -0.001307      0.000000
      8 C     c       0.004259     -0.002551     -0.001397      0.000000
      9 C     c       0.004519     -0.000298     -0.001255      0.000000
     10 C     c       0.004023      0.001337      0.000352      0.000000
     11 C     c       0.003371     -0.002912      0.007025      0.000000
     12 C     c       0.007420     -0.003819     -0.005348      0.000000
     13 C     c      -0.000229     -0.002273     -0.000372      0.000000
     14 C     c       0.002970     -0.003483      0.000456      0.000000
     15 C     c      -0.000090     -0.001875     -0.005927      0.000000
     16 C     c      -0.000898      0.001607      0.001358      0.000000
     17 C     c       0.004314     -0.002684     -0.001443      0.000000
     18 C     c       0.003929     -0.004698      0.003383      0.000000
     19 C     c      -0.004446     -0.006413      0.000721      0.000000
     20 C     c      -0.046124      0.014060      0.018415      0.000000
     21 C     c       0.002694      0.005898     -0.006765      0.000000
     22 C     c      -0.006655     -0.016659     -0.009721      0.000000
     23 C     c       0.002839     -0.003376     -0.002748      0.000000
     24 C     c       0.053881     -0.003271     -0.014125      0.000000
     25 C     c       0.004574     -0.000085     -0.007768      0.000000
     26 C     c      -0.006011     -0.000610     -0.003767      0.000000
     27 C     c       0.000675     -0.001269      0.001141      0.000000
     28 C     c      -0.002495     -0.008380      0.000832      0.000000
     29 C     c       0.000012      0.001964     -0.054987      0.000000
     30 C     c       0.000794      0.001810     -0.003244      0.000000
     31 C     c      -0.003405     -0.005301      0.000994      0.000000
     32 C     c      -0.006623     -0.011279      0.001102      0.000000
     33 C     c      -0.003423      0.005280      0.000814      0.000000
     34 C     c       0.004971      0.002044      0.001865      0.000000
     35 C     c       0.001796      0.000647      0.000822      0.000000
     36 C     c      -0.001409      0.003887     -0.002998      0.000000
     37 C     c       0.002361      0.006934     -0.001501      0.000000
     38 C     c      -0.001574     -0.002462     -0.001273      0.000000
     39 C     c       0.006125     -0.001340     -0.003863      0.000000
     40 C     c      -0.000455      0.001345     -0.004510      0.000000
     41 C     c      -0.000994     -0.000663      0.005205      0.000000
     42 C     c       0.001721     -0.004504     -0.006156      0.000000
     43 C     c      -0.002495      0.000400     -0.000347      0.000000
     44 C     c      -0.002667      0.002973      0.003011      0.000000
     45 C     c       0.004778     -0.001577      0.005274      0.000000
     46 C     c      -0.000866     -0.000146      0.000235      0.000000
     47 C     c       0.004037     -0.001833     -0.000955      0.000000
     48 C     c      -0.007576      0.005932     -0.010557      0.000000
     49 C     c       0.001112     -0.002958     -0.001241      0.000000
     50 C     c      -0.003495      0.000101     -0.001152      0.000000
     51 C     c       0.003164      0.001867     -0.001820      0.000000
     52 C     c       0.001508      0.000427     -0.000347      0.000000
     53 C     c       0.011589      0.010107      0.005743      0.000000
     54 C     c       0.001220      0.001685     -0.004446      0.000000
     55 C     c      -0.010367     -0.002605      0.004167      0.000000
     56 C     c       0.001326     -0.002641     -0.000365      0.000000
     57 C     c       0.000869     -0.002574     -0.001058      0.000000
     58 C     c      -0.000757     -0.007996      0.000471      0.000000
     59 C     c       0.004261      0.002314     -0.001903      0.000000
     60 C     c      -0.010470     -0.004547      0.000791      0.000000
     61 C     c       0.002752     -0.002735      0.007038      0.000000
     62 C     c      -0.000097     -0.000465      0.000339      0.000000
     63 C     c      -0.000443     -0.003885     -0.001241      0.000000
     64 C     c       0.001216     -0.001147      0.005053      0.000000
--------------------------------------------------------------------------------
  Maximum abs         0.053881      0.016659      0.054987      0.000000
--------------------------------------------------------------------------------


  Time to end of optimisation =       0.4559 seconds


  Peak dynamic memory used =       1.98 MB 


  Timing analysis for GULP :

--------------------------------------------------------------------------------
  Task / Subroutine                                          Time (Seconds)
--------------------------------------------------------------------------------
  Calculation of Brenner energy and derivatives                   0.4418
--------------------------------------------------------------------------------
  Total CPU time                                                  0.4559
--------------------------------------------------------------------------------


  CIF file written as opti_0.9850.cif


  Job Finished at 23:34.43 10th August     2020                               

