********************************************************************************
*                       GENERAL UTILITY LATTICE PROGRAM                        *
*                                 Julian Gale                                  *
*                       Curtin Institute for Computation                       *
*                           Department of Chemistry                            *
*                    Curtin University, Western Australia                      *
********************************************************************************
* Version = 5.1.1 * Last modified =  21st January 2019                         *
********************************************************************************
*  optimise     - perform optimisation run                                     *
*  conp         - constant pressure calculation                                *
*  isotropic    - only isotropic cell expansion to be allowed                  *
*  property     - calculate properties for final geometry                      *
*  phonon       - calculate phonons for final geometry                         *
*  lbfgs        - use limited memory BFGS update                               *
********************************************************************************
* ASE calculation                                                              *
********************************************************************************


  Job Started  at 01:24.56  5th December   2020                               

  Number of CPUs =    20


  Total number of configurations input =      1

********************************************************************************
*  Input for Configuration =   1                                               *
********************************************************************************

  Formula = C512                                                        

  Number of irreducible atoms/shells =     512


  Total number atoms/shells =     512

  Dimensionality = 3               :  Bulk   



  Cartesian lattice vectors (Angstroms) :

       15.291200    0.000000    0.000000
        0.000000   15.291200    0.000000
        0.000000    0.000000   15.291200

  Cell parameters (Angstroms/Degrees):

  a =      15.2912    alpha =  90.0000
  b =      15.2912    beta  =  90.0000
  c =      15.2912    gamma =  90.0000

  Initial cell volume =        3575.400578 Angs**3

  Temperature of configuration =  0.000     K 

  Pressure of configuration =         0.000 GPa 

  Fractional coordinates of asymmetric unit :

--------------------------------------------------------------------------------
   No.  Atomic       x           y          z         Charge      Occupancy
        Label      (Frac)      (Frac)     (Frac)        (e)         (Frac)  
--------------------------------------------------------------------------------
      1 C     c    0.408700 *  0.954610 *  0.993940 *   0.00000    1.000000    
      2 C     c    0.031560 *  0.056190 *  0.682950 *   0.00000    1.000000    
      3 C     c    0.345770 *  0.933750 *  0.704670 *   0.00000    1.000000    
      4 C     c    0.320250 *  0.494800 *  0.487860 *   0.00000    1.000000    
      5 C     c    0.090430 *  0.050830 *  0.537110 *   0.00000    1.000000    
      6 C     c    0.042050 *  0.741550 *  0.547080 *   0.00000    1.000000    
      7 C     c    0.889010 *  0.225770 *  0.913490 *   0.00000    1.000000    
      8 C     c    0.669180 *  0.309150 *  0.265350 *   0.00000    1.000000    
      9 C     c    0.976600 *  0.172060 *  0.553140 *   0.00000    1.000000    
     10 C     c    0.521800 *  0.376900 *  0.895030 *   0.00000    1.000000    
     11 C     c    0.471580 *  0.556010 *  0.580950 *   0.00000    1.000000    
     12 C     c    0.697000 *  0.329400 *  0.369060 *   0.00000    1.000000    
     13 C     c    0.041210 *  0.080930 *  0.363690 *   0.00000    1.000000    
     14 C     c    0.544100 *  0.317170 *  0.102670 *   0.00000    1.000000    
     15 C     c    0.088600 *  0.000780 *  0.356280 *   0.00000    1.000000    
     16 C     c    0.944950 *  0.075410 *  0.866920 *   0.00000    1.000000    
     17 C     c    0.494700 *  0.769170 *  0.265730 *   0.00000    1.000000    
     18 C     c    0.606480 *  0.232780 *  0.943610 *   0.00000    1.000000    
     19 C     c    0.437860 *  0.415970 *  0.760420 *   0.00000    1.000000    
     20 C     c    0.431200 *  0.794650 *  0.817680 *   0.00000    1.000000    
     21 C     c    0.543560 *  0.692220 *  0.877320 *   0.00000    1.000000    
     22 C     c    0.445020 *  0.292120 *  0.070780 *   0.00000    1.000000    
     23 C     c    0.296010 *  0.776730 *  0.293240 *   0.00000    1.000000    
     24 C     c    0.191630 *  0.376380 *  0.645130 *   0.00000    1.000000    
     25 C     c    0.096390 *  0.479930 *  0.427510 *   0.00000    1.000000    
     26 C     c    0.465560 *  0.321240 *  0.241120 *   0.00000    1.000000    
     27 C     c    0.765570 *  0.388960 *  0.327500 *   0.00000    1.000000    
     28 C     c    0.087520 *  0.825950 *  0.531120 *   0.00000    1.000000    
     29 C     c    0.087710 *  0.137900 *  0.218970 *   0.00000    1.000000    
     30 C     c    0.021020 *  0.280500 *  0.675680 *   0.00000    1.000000    
     31 C     c    0.104140 *  0.826850 *  0.431000 *   0.00000    1.000000    
     32 C     c    0.285720 *  0.344930 *  0.137380 *   0.00000    1.000000    
     33 C     c    0.522270 *  0.770470 *  0.520210 *   0.00000    1.000000    
     34 C     c    0.337930 *  0.108750 *  0.934810 *   0.00000    1.000000    
     35 C     c    0.142230 *  0.369540 *  0.268630 *   0.00000    1.000000    
     36 C     c    0.452930 *  0.163860 *  0.216920 *   0.00000    1.000000    
     37 C     c    0.678300 *  0.435500 *  0.832580 *   0.00000    1.000000    
     38 C     c    0.384900 *  0.172080 *  0.855910 *   0.00000    1.000000    
     39 C     c    0.220090 *  0.606360 *  0.423030 *   0.00000    1.000000    
     40 C     c    0.036130 *  0.381190 *  0.698560 *   0.00000    1.000000    
     41 C     c    0.423890 *  0.625780 *  0.461700 *   0.00000    1.000000    
     42 C     c    0.297560 *  0.393140 *  0.510470 *   0.00000    1.000000    
     43 C     c    0.307680 *  0.266350 *  0.192990 *   0.00000    1.000000    
     44 C     c    0.073740 *  0.503160 *  0.524830 *   0.00000    1.000000    
     45 C     c    0.712540 *  0.953340 *  0.978570 *   0.00000    1.000000    
     46 C     c    0.486470 *  0.146690 *  0.357470 *   0.00000    1.000000    
     47 C     c    0.998150 *  0.753780 *  0.152280 *   0.00000    1.000000    
     48 C     c    0.602110 *  0.230060 *  0.142620 *   0.00000    1.000000    
     49 C     c    0.228750 *  0.238670 *  0.917610 *   0.00000    1.000000    
     50 C     c    0.277350 *  0.557840 *  0.274960 *   0.00000    1.000000    
     51 C     c    0.693750 *  0.884350 *  0.634210 *   0.00000    1.000000    
     52 C     c    0.142930 *  0.063340 *  0.049970 *   0.00000    1.000000    
     53 C     c    0.788540 *  0.411410 *  0.006250 *   0.00000    1.000000    
     54 C     c    0.222010 *  0.080090 *  0.114580 *   0.00000    1.000000    
     55 C     c    0.225980 *  0.222610 *  0.236270 *   0.00000    1.000000    
     56 C     c    0.682610 *  0.681540 *  0.121930 *   0.00000    1.000000    
     57 C     c    0.332510 *  0.464060 *  0.655770 *   0.00000    1.000000    
     58 C     c    0.824320 *  0.624710 *  0.368670 *   0.00000    1.000000    
     59 C     c    0.401120 *  0.184710 *  0.312950 *   0.00000    1.000000    
     60 C     c    0.408920 *  0.579300 *  0.865520 *   0.00000    1.000000    
     61 C     c    0.958880 *  0.530090 *  0.360620 *   0.00000    1.000000    
     62 C     c    0.396320 *  0.245750 *  0.926210 *   0.00000    1.000000    
     63 C     c    0.158320 *  0.413580 *  0.425600 *   0.00000    1.000000    
     64 C     c    0.830820 *  0.148640 *  0.209670 *   0.00000    1.000000    
     65 C     c    0.883990 *  0.795730 *  0.525310 *   0.00000    1.000000    
     66 C     c    0.528740 *  0.807150 *  0.015110 *   0.00000    1.000000    
     67 C     c    0.895460 *  0.947380 *  0.443780 *   0.00000    1.000000    
     68 C     c    0.468400 *  0.415760 *  0.563480 *   0.00000    1.000000    
     69 C     c    0.885930 *  0.874530 *  0.123780 *   0.00000    1.000000    
     70 C     c    0.027870 *  0.066820 *  0.182760 *   0.00000    1.000000    
     71 C     c    0.405030 *  0.368420 *  0.357960 *   0.00000    1.000000    
     72 C     c    0.241790 *  0.244620 *  0.481030 *   0.00000    1.000000    
     73 C     c    0.705490 *  0.973980 *  0.316070 *   0.00000    1.000000    
     74 C     c    0.929520 *  0.820720 *  0.945140 *   0.00000    1.000000    
     75 C     c    0.067020 *  0.531170 *  0.905960 *   0.00000    1.000000    
     76 C     c    0.929960 *  0.472660 *  0.533650 *   0.00000    1.000000    
     77 C     c    0.367170 *  0.663540 *  0.620520 *   0.00000    1.000000    
     78 C     c    0.602220 *  0.462000 *  0.786460 *   0.00000    1.000000    
     79 C     c    0.182550 *  0.891860 *  0.058420 *   0.00000    1.000000    
     80 C     c    0.242100 *  0.555690 *  0.511960 *   0.00000    1.000000    
     81 C     c    0.765790 *  0.656460 *  0.923360 *   0.00000    1.000000    
     82 C     c    0.845460 *  0.277630 *  0.227780 *   0.00000    1.000000    
     83 C     c    0.033210 *  0.702180 *  0.462330 *   0.00000    1.000000    
     84 C     c    0.832510 *  0.965630 *  0.679110 *   0.00000    1.000000    
     85 C     c    0.589390 *  0.078120 *  0.520070 *   0.00000    1.000000    
     86 C     c    0.326680 *  0.476850 *  0.242350 *   0.00000    1.000000    
     87 C     c    0.728150 *  0.130010 *  0.974890 *   0.00000    1.000000    
     88 C     c    0.349940 *  0.680830 *  0.003230 *   0.00000    1.000000    
     89 C     c    0.633280 *  0.028570 *  0.339500 *   0.00000    1.000000    
     90 C     c    0.045670 *  0.908350 *  0.984470 *   0.00000    1.000000    
     91 C     c    0.397520 *  0.151980 *  0.143400 *   0.00000    1.000000    
     92 C     c    0.175770 *  0.867800 *  0.218080 *   0.00000    1.000000    
     93 C     c    0.774890 *  0.538000 *  0.255830 *   0.00000    1.000000    
     94 C     c    0.053420 *  0.637800 *  0.623870 *   0.00000    1.000000    
     95 C     c    0.378810 *  0.273600 *  0.569570 *   0.00000    1.000000    
     96 C     c    0.391090 *  0.272640 *  0.253390 *   0.00000    1.000000    
     97 C     c    0.398210 *  0.063400 *  0.100600 *   0.00000    1.000000    
     98 C     c    0.208740 *  0.847120 *  0.135900 *   0.00000    1.000000    
     99 C     c    0.613530 *  0.600890 *  0.367560 *   0.00000    1.000000    
    100 C     c    0.039040 *  0.196060 *  0.879630 *   0.00000    1.000000    
    101 C     c    0.867650 *  0.327320 *  0.558540 *   0.00000    1.000000    
    102 C     c    0.423860 *  0.752400 *  0.192580 *   0.00000    1.000000    
    103 C     c    0.171250 *  0.490420 *  0.533870 *   0.00000    1.000000    
    104 C     c    0.940850 *  0.019620 *  0.209870 *   0.00000    1.000000    
    105 C     c    0.624730 *  0.233910 *  0.501010 *   0.00000    1.000000    
    106 C     c    0.102690 *  0.920340 *  0.219370 *   0.00000    1.000000    
    107 C     c    0.271710 *  0.760800 *  0.455810 *   0.00000    1.000000    
    108 C     c    0.164930 *  0.967070 *  0.413420 *   0.00000    1.000000    
    109 C     c    0.215720 *  0.520500 *  0.968790 *   0.00000    1.000000    
    110 C     c    0.372660 *  0.371970 *  0.824540 *   0.00000    1.000000    
    111 C     c    0.881900 *  0.040760 *  0.732160 *   0.00000    1.000000    
    112 C     c    0.952490 *  0.160990 *  0.464830 *   0.00000    1.000000    
    113 C     c    0.519330 *  0.645420 *  0.709520 *   0.00000    1.000000    
    114 C     c    0.646330 *  0.247340 *  0.779500 *   0.00000    1.000000    
    115 C     c    0.251220 *  0.051630 *  0.262240 *   0.00000    1.000000    
    116 C     c    0.800070 *  0.983700 *  0.947580 *   0.00000    1.000000    
    117 C     c    0.746780 *  0.942230 *  0.393650 *   0.00000    1.000000    
    118 C     c    0.373820 *  0.449260 *  0.566610 *   0.00000    1.000000    
    119 C     c    0.087980 *  0.592840 *  0.704300 *   0.00000    1.000000    
    120 C     c    0.035340 *  0.310760 *  0.986320 *   0.00000    1.000000    
    121 C     c    0.197280 *  0.699920 *  0.433250 *   0.00000    1.000000    
    122 C     c    0.324910 *  0.303850 *  0.489910 *   0.00000    1.000000    
    123 C     c    0.674410 *  0.538260 *  0.036070 *   0.00000    1.000000    
    124 C     c    0.791450 *  0.091480 *  0.400030 *   0.00000    1.000000    
    125 C     c    0.764270 *  0.736090 *  0.704720 *   0.00000    1.000000    
    126 C     c    0.563650 *  0.040350 *  0.174330 *   0.00000    1.000000    
    127 C     c    0.208030 *  0.822250 *  0.306560 *   0.00000    1.000000    
    128 C     c    0.025430 *  0.096410 *  0.594850 *   0.00000    1.000000    
    129 C     c    0.846030 *  0.720080 *  0.148350 *   0.00000    1.000000    
    130 C     c    0.960170 *  0.432830 *  0.169410 *   0.00000    1.000000    
    131 C     c    0.250400 *  0.755520 *  0.121720 *   0.00000    1.000000    
    132 C     c    0.609170 *  0.691600 *  0.180450 *   0.00000    1.000000    
    133 C     c    0.088780 *  0.741580 *  0.027340 *   0.00000    1.000000    
    134 C     c    0.970330 *  0.779450 *  0.322350 *   0.00000    1.000000    
    135 C     c    0.147200 *  0.303100 *  0.919130 *   0.00000    1.000000    
    136 C     c    0.925980 *  0.384410 *  0.099940 *   0.00000    1.000000    
    137 C     c    0.583800 *  0.771560 *  0.590580 *   0.00000    1.000000    
    138 C     c    0.034290 *  0.485080 *  0.993710 *   0.00000    1.000000    
    139 C     c    0.637520 *  0.397340 *  0.230460 *   0.00000    1.000000    
    140 C     c    0.817520 *  0.594790 *  0.776780 *   0.00000    1.000000    
    141 C     c    0.667830 *  0.723190 *  0.733320 *   0.00000    1.000000    
    142 C     c    0.727080 *  0.860630 *  0.254040 *   0.00000    1.000000    
    143 C     c    0.798610 *  0.814040 *  0.667910 *   0.00000    1.000000    
    144 C     c    0.717250 *  0.647970 *  0.544320 *   0.00000    1.000000    
    145 C     c    0.490460 *  0.058970 *  0.498330 *   0.00000    1.000000    
    146 C     c    0.444410 *  0.935210 *  0.199540 *   0.00000    1.000000    
    147 C     c    0.161920 *  0.557630 *  0.901940 *   0.00000    1.000000    
    148 C     c    0.308010 *  0.288130 *  0.942700 *   0.00000    1.000000    
    149 C     c    0.621350 *  0.675560 *  0.419610 *   0.00000    1.000000    
    150 C     c    0.692580 *  0.197280 *  0.927110 *   0.00000    1.000000    
    151 C     c    0.961160 *  0.083840 *  0.412600 *   0.00000    1.000000    
    152 C     c    0.320340 *  0.944420 *  0.045020 *   0.00000    1.000000    
    153 C     c    0.558420 *  0.333020 *  0.385320 *   0.00000    1.000000    
    154 C     c    0.007730 *  0.551330 *  0.755030 *   0.00000    1.000000    
    155 C     c    0.965400 *  0.441470 *  0.655020 *   0.00000    1.000000    
    156 C     c    0.484940 *  0.832990 *  0.334530 *   0.00000    1.000000    
    157 C     c    0.545220 *  0.714900 *  0.450870 *   0.00000    1.000000    
    158 C     c    0.961520 *  0.271380 *  0.582050 *   0.00000    1.000000    
    159 C     c    0.399280 *  0.501930 *  0.184030 *   0.00000    1.000000    
    160 C     c    0.150040 *  0.594890 *  0.097930 *   0.00000    1.000000    
    161 C     c    0.119050 *  0.342030 *  0.825970 *   0.00000    1.000000    
    162 C     c    0.456530 *  0.153760 *  0.516720 *   0.00000    1.000000    
    163 C     c    0.768210 *  0.492150 *  0.175950 *   0.00000    1.000000    
    164 C     c    0.557350 *  0.147650 *  0.203410 *   0.00000    1.000000    
    165 C     c    0.583670 *  0.762520 *  0.234020 *   0.00000    1.000000    
    166 C     c    0.013130 *  0.815840 *  0.993020 *   0.00000    1.000000    
    167 C     c    0.240380 *  0.172060 *  0.070960 *   0.00000    1.000000    
    168 C     c    0.222760 *  0.217720 *  0.818690 *   0.00000    1.000000    
    169 C     c    0.422720 *  0.816680 *  0.400420 *   0.00000    1.000000    
    170 C     c    0.557690 *  0.836600 *  0.923990 *   0.00000    1.000000    
    171 C     c    0.578450 *  0.494250 *  0.662380 *   0.00000    1.000000    
    172 C     c    0.454390 *  0.845400 *  0.063580 *   0.00000    1.000000    
    173 C     c    0.364160 *  0.176100 *  0.548410 *   0.00000    1.000000    
    174 C     c    0.800760 *  0.967010 *  0.848670 *   0.00000    1.000000    
    175 C     c    0.776420 *  0.480540 *  0.516520 *   0.00000    1.000000    
    176 C     c    0.548610 *  0.214760 *  0.772900 *   0.00000    1.000000    
    177 C     c    0.845960 *  0.684020 *  0.737580 *   0.00000    1.000000    
    178 C     c    0.394250 *  0.937240 *  0.892620 *   0.00000    1.000000    
    179 C     c    0.301730 *  0.992310 *  0.211530 *   0.00000    1.000000    
    180 C     c    0.532190 *  0.280720 *  0.464380 *   0.00000    1.000000    
    181 C     c    0.502510 *  0.262690 *  0.693890 *   0.00000    1.000000    
    182 C     c    0.107250 *  0.232890 *  0.698680 *   0.00000    1.000000    
    183 C     c    0.323470 *  0.199560 *  0.123030 *   0.00000    1.000000    
    184 C     c    0.878970 *  0.932330 *  0.596010 *   0.00000    1.000000    
    185 C     c    0.724760 *  0.606530 *  0.088620 *   0.00000    1.000000    
    186 C     c    0.089500 *  0.725230 *  0.194100 *   0.00000    1.000000    
    187 C     c    0.616850 *  0.591470 *  0.974990 *   0.00000    1.000000    
    188 C     c    0.621510 *  0.480580 *  0.096750 *   0.00000    1.000000    
    189 C     c    0.811750 *  0.882000 *  0.818170 *   0.00000    1.000000    
    190 C     c    0.109420 *  0.727960 *  0.393980 *   0.00000    1.000000    
    191 C     c    0.438570 *  0.325590 *  0.889110 *   0.00000    1.000000    
    192 C     c    0.298320 *  0.060740 *  0.350070 *   0.00000    1.000000    
    193 C     c    0.035860 *  0.485160 *  0.822420 *   0.00000    1.000000    
    194 C     c    0.321590 *  0.600190 *  0.056230 *   0.00000    1.000000    
    195 C     c    0.960420 *  0.836430 *  0.168380 *   0.00000    1.000000    
    196 C     c    0.750640 *  0.955820 *  0.613890 *   0.00000    1.000000    
    197 C     c    0.666490 *  0.688640 *  0.961830 *   0.00000    1.000000    
    198 C     c    0.451020 *  0.959940 *  0.816620 *   0.00000    1.000000    
    199 C     c    0.425300 *  0.322740 *  0.712520 *   0.00000    1.000000    
    200 C     c    0.639970 *  0.982890 *  0.733970 *   0.00000    1.000000    
    201 C     c    0.047310 *  0.335300 *  0.560560 *   0.00000    1.000000    
    202 C     c    0.549290 *  0.411000 *  0.634050 *   0.00000    1.000000    
    203 C     c    0.941210 *  0.862860 *  0.463150 *   0.00000    1.000000    
    204 C     c    0.229630 *  0.975380 *  0.904240 *   0.00000    1.000000    
    205 C     c    0.272990 *  0.581070 *  0.761390 *   0.00000    1.000000    
    206 C     c    0.476930 *  0.042890 *  0.388830 *   0.00000    1.000000    
    207 C     c    0.684850 *  0.094260 *  0.059570 *   0.00000    1.000000    
    208 C     c    0.444360 *  0.828360 *  0.498950 *   0.00000    1.000000    
    209 C     c    0.673990 *  0.345920 *  0.860160 *   0.00000    1.000000    
    210 C     c    0.220920 *  0.715190 *  0.709180 *   0.00000    1.000000    
    211 C     c    0.722670 *  0.501120 *  0.881760 *   0.00000    1.000000    
    212 C     c    0.429660 *  0.215600 *  0.014660 *   0.00000    1.000000    
    213 C     c    0.830680 *  0.800720 *  0.094600 *   0.00000    1.000000    
    214 C     c    0.733940 *  0.163460 *  0.359640 *   0.00000    1.000000    
    215 C     c    0.680440 *  0.749960 *  0.050470 *   0.00000    1.000000    
    216 C     c    0.022430 *  0.900860 *  0.516680 *   0.00000    1.000000    
    217 C     c    0.197550 *  0.325870 *  0.091820 *   0.00000    1.000000    
    218 C     c    0.957140 *  0.337940 *  0.829190 *   0.00000    1.000000    
    219 C     c    0.553270 *  0.897620 *  0.325160 *   0.00000    1.000000    
    220 C     c    0.842790 *  0.837340 *  0.590960 *   0.00000    1.000000    
    221 C     c    0.343470 *  0.121500 *  0.624360 *   0.00000    1.000000    
    222 C     c    0.240040 *  0.027280 *  0.420780 *   0.00000    1.000000    
    223 C     c    0.954030 *  0.974570 *  0.855670 *   0.00000    1.000000    
    224 C     c    0.794830 *  0.755520 *  0.936680 *   0.00000    1.000000    
    225 C     c    0.791560 *  0.484840 *  0.338320 *   0.00000    1.000000    
    226 C     c    0.792940 *  0.031870 *  0.784400 *   0.00000    1.000000    
    227 C     c    0.833650 *  0.605740 *  0.976400 *   0.00000    1.000000    
    228 C     c    0.462290 *  0.211300 *  0.433330 *   0.00000    1.000000    
    229 C     c    0.013700 *  0.955520 *  0.689900 *   0.00000    1.000000    
    230 C     c    0.934680 *  0.833840 *  0.758000 *   0.00000    1.000000    
    231 C     c    0.324440 *  0.011940 *  0.908100 *   0.00000    1.000000    
    232 C     c    0.934430 *  0.685490 *  0.147240 *   0.00000    1.000000    
    233 C     c    0.527760 *  0.560490 *  0.360820 *   0.00000    1.000000    
    234 C     c    0.162070 *  0.387850 *  0.034520 *   0.00000    1.000000    
    235 C     c    0.243540 *  0.080910 *  0.493360 *   0.00000    1.000000    
    236 C     c    0.315190 *  0.376600 *  0.981470 *   0.00000    1.000000    
    237 C     c    0.670140 *  0.534670 *  0.333280 *   0.00000    1.000000    
    238 C     c    0.492330 *  0.202770 *  0.600150 *   0.00000    1.000000    
    239 C     c    0.780130 *  0.288670 *  0.578530 *   0.00000    1.000000    
    240 C     c    0.507750 *  0.567720 *  0.863930 *   0.00000    1.000000    
    241 C     c    0.175840 *  0.444220 *  0.203770 *   0.00000    1.000000    
    242 C     c    0.608460 *  0.814440 *  0.074120 *   0.00000    1.000000    
    243 C     c    0.833880 *  0.256400 *  0.069130 *   0.00000    1.000000    
    244 C     c    0.609650 *  0.814500 *  0.752770 *   0.00000    1.000000    
    245 C     c    0.036390 *  0.388520 *  0.799530 *   0.00000    1.000000    
    246 C     c    0.308290 *  0.596340 *  0.365690 *   0.00000    1.000000    
    247 C     c    0.969320 *  0.672730 *  0.935760 *   0.00000    1.000000    
    248 C     c    0.811330 *  0.790970 *  0.375280 *   0.00000    1.000000    
    249 C     c    0.560350 *  0.628510 *  0.801340 *   0.00000    1.000000    
    250 C     c    0.660350 *  0.641870 *  0.796390 *   0.00000    1.000000    
    251 C     c    0.892010 *  0.471690 *  0.349260 *   0.00000    1.000000    
    252 C     c    0.870410 *  0.445860 *  0.047880 *   0.00000    1.000000    
    253 C     c    0.158040 *  0.104930 *  0.959210 *   0.00000    1.000000    
    254 C     c    0.586050 *  0.321250 *  0.654120 *   0.00000    1.000000    
    255 C     c    0.531690 *  0.990210 *  0.841480 *   0.00000    1.000000    
    256 C     c    0.763900 *  0.084210 *  0.118740 *   0.00000    1.000000    
    257 C     c    0.241490 *  0.857050 *  0.498930 *   0.00000    1.000000    
    258 C     c    0.261520 *  0.696990 *  0.621530 *   0.00000    1.000000    
    259 C     c    0.933650 *  0.522980 *  0.165340 *   0.00000    1.000000    
    260 C     c    0.286860 *  0.737250 *  0.771550 *   0.00000    1.000000    
    261 C     c    0.304920 *  0.756580 *  0.552990 *   0.00000    1.000000    
    262 C     c    0.654110 *  0.003780 *  0.031870 *   0.00000    1.000000    
    263 C     c    0.886330 *  0.091860 *  0.254530 *   0.00000    1.000000    
    264 C     c    0.120200 *  0.577340 *  0.259520 *   0.00000    1.000000    
    265 C     c    0.748020 *  0.252290 *  0.412960 *   0.00000    1.000000    
    266 C     c    0.086050 *  0.884840 *  0.718830 *   0.00000    1.000000    
    267 C     c    0.350150 *  0.439720 *  0.332970 *   0.00000    1.000000    
    268 C     c    0.362010 *  0.848500 *  0.868770 *   0.00000    1.000000    
    269 C     c    0.235650 *  0.781270 *  0.949360 *   0.00000    1.000000    
    270 C     c    0.525620 *  0.476520 *  0.303930 *   0.00000    1.000000    
    271 C     c    0.653730 *  0.528300 *  0.619230 *   0.00000    1.000000    
    272 C     c    0.491950 *  0.392540 *  0.347340 *   0.00000    1.000000    
    273 C     c    0.311590 *  0.917700 *  0.526720 *   0.00000    1.000000    
    274 C     c    0.620930 *  0.754630 *  0.895960 *   0.00000    1.000000    
    275 C     c    0.792700 *  0.588860 *  0.529450 *   0.00000    1.000000    
    276 C     c    0.403260 *  0.997120 *  0.746850 *   0.00000    1.000000    
    277 C     c    0.545190 *  0.090830 *  0.951120 *   0.00000    1.000000    
    278 C     c    0.343560 *  0.759800 *  0.382290 *   0.00000    1.000000    
    279 C     c    0.474670 *  0.847740 *  0.163380 *   0.00000    1.000000    
    280 C     c    0.448410 *  0.994900 *  0.564010 *   0.00000    1.000000    
    281 C     c    0.390300 *  0.293070 *  0.412910 *   0.00000    1.000000    
    282 C     c    0.925930 *  0.621990 *  0.366070 *   0.00000    1.000000    
    283 C     c    0.119440 *  0.761460 *  0.287780 *   0.00000    1.000000    
    284 C     c    0.624220 *  0.857260 *  0.255610 *   0.00000    1.000000    
    285 C     c    0.388170 *  0.836660 *  0.671050 *   0.00000    1.000000    
    286 C     c    0.412060 *  0.090330 *  0.751530 *   0.00000    1.000000    
    287 C     c    0.170600 *  0.855090 *  0.573700 *   0.00000    1.000000    
    288 C     c    0.145510 *  0.281960 *  0.219110 *   0.00000    1.000000    
    289 C     c    0.203120 *  0.042660 *  0.713600 *   0.00000    1.000000    
    290 C     c    0.955170 *  0.951340 *  0.283610 *   0.00000    1.000000    
    291 C     c    0.799120 *  0.710390 *  0.230630 *   0.00000    1.000000    
    292 C     c    0.771960 *  0.785640 *  0.023680 *   0.00000    1.000000    
    293 C     c    0.387440 *  0.009480 *  0.340600 *   0.00000    1.000000    
    294 C     c    0.717360 *  0.041300 *  0.731760 *   0.00000    1.000000    
    295 C     c    0.596570 *  0.314920 *  0.902700 *   0.00000    1.000000    
    296 C     c    0.146140 *  0.327890 *  0.567780 *   0.00000    1.000000    
    297 C     c    0.413900 *  0.623070 *  0.553510 *   0.00000    1.000000    
    298 C     c    0.889810 *  0.129050 *  0.931210 *   0.00000    1.000000    
    299 C     c    0.350030 *  0.144700 *  0.711280 *   0.00000    1.000000    
    300 C     c    0.360860 *  0.427920 *  0.910490 *   0.00000    1.000000    
    301 C     c    0.933760 *  0.486900 *  0.985510 *   0.00000    1.000000    
    302 C     c    0.236350 *  0.933540 *  0.998480 *   0.00000    1.000000    
    303 C     c    0.813930 *  0.880260 *  0.728760 *   0.00000    1.000000    
    304 C     c    0.016860 *  0.427400 *  0.562270 *   0.00000    1.000000    
    305 C     c    0.383110 *  0.509130 *  0.930620 *   0.00000    1.000000    
    306 C     c    0.193460 *  0.871090 *  0.403160 *   0.00000    1.000000    
    307 C     c    0.623700 *  0.141880 *  0.462520 *   0.00000    1.000000    
    308 C     c    0.500920 *  0.720500 *  0.975840 *   0.00000    1.000000    
    309 C     c    0.080730 *  0.977000 *  0.482550 *   0.00000    1.000000    
    310 C     c    0.481700 *  0.556920 *  0.438390 *   0.00000    1.000000    
    311 C     c    0.660740 *  0.824540 *  0.571710 *   0.00000    1.000000    
    312 C     c    0.813720 *  0.595740 *  0.065560 *   0.00000    1.000000    
    313 C     c    0.056300 *  0.834130 *  0.339080 *   0.00000    1.000000    
    314 C     c    0.245250 *  0.215710 *  0.331040 *   0.00000    1.000000    
    315 C     c    0.240210 *  0.954650 *  0.680060 *   0.00000    1.000000    
    316 C     c    0.631150 *  0.064880 *  0.601810 *   0.00000    1.000000    
    317 C     c    0.371560 *  0.663260 *  0.394990 *   0.00000    1.000000    
    318 C     c    0.211820 *  0.896530 *  0.847470 *   0.00000    1.000000    
    319 C     c    0.738420 *  0.002740 *  0.537440 *   0.00000    1.000000    
    320 C     c    0.066130 *  0.579990 *  0.037480 *   0.00000    1.000000    
    321 C     c    0.561800 *  0.168500 *  0.996330 *   0.00000    1.000000    
    322 C     c    0.150990 *  0.705410 *  0.112810 *   0.00000    1.000000    
    323 C     c    0.782820 *  0.702880 *  0.409520 *   0.00000    1.000000    
    324 C     c    0.511240 *  0.557000 *  0.661490 *   0.00000    1.000000    
    325 C     c    0.065640 *  0.090660 *  0.763180 *   0.00000    1.000000    
    326 C     c    0.144600 *  0.530240 *  0.183080 *   0.00000    1.000000    
    327 C     c    0.983050 *  0.384110 *  0.249360 *   0.00000    1.000000    
    328 C     c    0.378960 *  0.963650 *  0.257210 *   0.00000    1.000000    
    329 C     c    0.933730 *  0.511520 *  0.705980 *   0.00000    1.000000    
    330 C     c    0.024100 *  0.792400 *  0.716130 *   0.00000    1.000000    
    331 C     c    0.987820 *  0.253520 *  0.153320 *   0.00000    1.000000    
    332 C     c    0.580490 *  0.867270 *  0.156100 *   0.00000    1.000000    
    333 C     c    0.201530 *  0.617270 *  0.833340 *   0.00000    1.000000    
    334 C     c    0.478140 *  0.980140 *  0.039590 *   0.00000    1.000000    
    335 C     c    0.281160 *  0.684270 *  0.848090 *   0.00000    1.000000    
    336 C     c    0.948170 *  0.699540 *  0.427620 *   0.00000    1.000000    
    337 C     c    0.813710 *  0.290730 *  0.898720 *   0.00000    1.000000    
    338 C     c    0.856130 *  0.420120 *  0.534360 *   0.00000    1.000000    
    339 C     c    0.010180 *  0.126240 *  0.827670 *   0.00000    1.000000    
    340 C     c    0.255810 *  0.597960 *  0.601490 *   0.00000    1.000000    
    341 C     c    0.599820 *  0.693630 *  0.655590 *   0.00000    1.000000    
    342 C     c    0.445940 *  0.724870 *  0.882600 *   0.00000    1.000000    
    343 C     c    0.752800 *  0.854790 *  0.427300 *   0.00000    1.000000    
    344 C     c    0.546960 *  0.534700 *  0.137150 *   0.00000    1.000000    
    345 C     c    0.298460 *  0.763200 *  0.026990 *   0.00000    1.000000    
    346 C     c    0.980600 *  0.683760 *  0.302830 *   0.00000    1.000000    
    347 C     c    0.340770 *  0.506040 *  0.395900 *   0.00000    1.000000    
    348 C     c    0.920060 *  0.743000 *  0.895460 *   0.00000    1.000000    
    349 C     c    0.374140 *  0.581690 *  0.768030 *   0.00000    1.000000    
    350 C     c    0.099080 *  0.922520 *  0.059790 *   0.00000    1.000000    
    351 C     c    0.391750 *  0.492720 *  0.721530 *   0.00000    1.000000    
    352 C     c    0.974640 *  0.044090 *  0.035720 *   0.00000    1.000000    
    353 C     c    0.935140 *  0.945250 *  0.759180 *   0.00000    1.000000    
    354 C     c    0.592650 *  0.269110 *  0.318360 *   0.00000    1.000000    
    355 C     c    0.625460 *  0.465030 *  0.298990 *   0.00000    1.000000    
    356 C     c    0.192620 *  0.104930 *  0.644030 *   0.00000    1.000000    
    357 C     c    0.581470 *  0.009510 *  0.662470 *   0.00000    1.000000    
    358 C     c    0.390950 *  0.530040 *  0.026420 *   0.00000    1.000000    
    359 C     c    0.053170 *  0.928350 *  0.302230 *   0.00000    1.000000    
    360 C     c    0.309130 *  0.016080 *  0.114010 *   0.00000    1.000000    
    361 C     c    0.047190 *  0.937110 *  0.883640 *   0.00000    1.000000    
    362 C     c    0.792290 *  0.543210 *  0.427270 *   0.00000    1.000000    
    363 C     c    0.665460 *  0.908890 *  0.913950 *   0.00000    1.000000    
    364 C     c    0.977820 *  0.927230 *  0.602600 *   0.00000    1.000000    
    365 C     c    0.571680 *  0.249640 *  0.584610 *   0.00000    1.000000    
    366 C     c    0.271020 *  0.829540 *  0.877550 *   0.00000    1.000000    
    367 C     c    0.356810 *  0.846320 *  0.045680 *   0.00000    1.000000    
    368 C     c    0.199850 *  0.396420 *  0.516160 *   0.00000    1.000000    
    369 C     c    0.218820 *  0.356010 *  0.783930 *   0.00000    1.000000    
    370 C     c    0.066790 *  0.950180 *  0.143550 *   0.00000    1.000000    
    371 C     c    0.158840 *  0.235860 *  0.087800 *   0.00000    1.000000    
    372 C     c    0.144130 *  0.249350 *  0.779550 *   0.00000    1.000000    
    373 C     c    0.953500 *  0.281720 *  0.244240 *   0.00000    1.000000    
    374 C     c    0.479390 *  0.886400 *  0.690870 *   0.00000    1.000000    
    375 C     c    0.066760 *  0.730280 *  0.787930 *   0.00000    1.000000    
    376 C     c    0.817600 *  0.427700 *  0.776640 *   0.00000    1.000000    
    377 C     c    0.682350 *  0.830470 *  0.873820 *   0.00000    1.000000    
    378 C     c    0.869710 *  0.964940 *  0.150380 *   0.00000    1.000000    
    379 C     c    0.167140 *  0.889370 *  0.656320 *   0.00000    1.000000    
    380 C     c    0.667610 *  0.298500 *  0.703550 *   0.00000    1.000000    
    381 C     c    0.403350 *  0.919090 *  0.514680 *   0.00000    1.000000    
    382 C     c    0.540550 *  0.633740 *  0.162190 *   0.00000    1.000000    
    383 C     c    0.570390 *  0.937940 *  0.913710 *   0.00000    1.000000    
    384 C     c    0.733420 *  0.481090 *  0.973570 *   0.00000    1.000000    
    385 C     c    0.466870 *  0.318410 *  0.535650 *   0.00000    1.000000    
    386 C     c    0.283980 *  0.379000 *  0.661210 *   0.00000    1.000000    
    387 C     c    0.847340 *  0.264820 *  0.390850 *   0.00000    1.000000    
    388 C     c    0.928060 *  0.294180 *  0.091330 *   0.00000    1.000000    
    389 C     c    0.793160 *  0.626070 *  0.272950 *   0.00000    1.000000    
    390 C     c    0.480750 *  0.574080 *  0.061110 *   0.00000    1.000000    
    391 C     c    0.804890 *  0.082660 *  0.955630 *   0.00000    1.000000    
    392 C     c    0.247370 *  0.154470 *  0.969440 *   0.00000    1.000000    
    393 C     c    0.784330 *  0.791490 *  0.278830 *   0.00000    1.000000    
    394 C     c    0.449680 *  0.669880 *  0.144250 *   0.00000    1.000000    
    395 C     c    0.903960 *  0.978540 *  0.361080 *   0.00000    1.000000    
    396 C     c    0.561090 *  0.001210 *  0.994020 *   0.00000    1.000000    
    397 C     c    0.492470 *  0.493900 *  0.212680 *   0.00000    1.000000    
    398 C     c    0.728830 *  0.256340 *  0.854280 *   0.00000    1.000000    
    399 C     c    0.693220 *  0.258280 *  0.183560 *   0.00000    1.000000    
    400 C     c    0.966290 *  0.969890 *  0.985220 *   0.00000    1.000000    
    401 C     c    0.794030 *  0.317530 *  0.994440 *   0.00000    1.000000    
    402 C     c    0.753290 *  0.307360 *  0.667780 *   0.00000    1.000000    
    403 C     c    0.520920 *  0.488420 *  0.507630 *   0.00000    1.000000    
    404 C     c    0.538450 *  0.444100 *  0.966680 *   0.00000    1.000000    
    405 C     c    0.031160 *  0.585900 *  0.551670 *   0.00000    1.000000    
    406 C     c    0.374680 *  0.808450 *  0.576880 *   0.00000    1.000000    
    407 C     c    0.720730 *  0.085740 *  0.644270 *   0.00000    1.000000    
    408 C     c    0.163050 *  0.192580 *  0.636420 *   0.00000    1.000000    
    409 C     c    0.292260 *  0.975940 *  0.593760 *   0.00000    1.000000    
    410 C     c    0.208740 *  0.272350 *  0.391510 *   0.00000    1.000000    
    411 C     c    0.446090 *  0.673120 *  0.038620 *   0.00000    1.000000    
    412 C     c    0.772260 *  0.812280 *  0.866500 *   0.00000    1.000000    
    413 C     c    0.087530 *  0.237570 *  0.014750 *   0.00000    1.000000    
    414 C     c    0.633340 *  0.388380 *  0.425270 *   0.00000    1.000000    
    415 C     c    0.505480 *  0.960590 *  0.641970 *   0.00000    1.000000    
    416 C     c    0.899290 *  0.294070 *  0.747720 *   0.00000    1.000000    
    417 C     c    0.265600 *  0.424270 *  0.190240 *   0.00000    1.000000    
    418 C     c    0.570820 *  0.408300 *  0.047700 *   0.00000    1.000000    
    419 C     c    0.005600 *  0.649460 *  0.794110 *   0.00000    1.000000    
    420 C     c    0.194480 *  0.120310 *  0.211250 *   0.00000    1.000000    
    421 C     c    0.702530 *  0.806960 *  0.490270 *   0.00000    1.000000    
    422 C     c    0.857370 *  0.367830 *  0.847100 *   0.00000    1.000000    
    423 C     c    0.713140 *  0.959480 *  0.214090 *   0.00000    1.000000    
    424 C     c    0.230640 *  0.574000 *  0.043540 *   0.00000    1.000000    
    425 C     c    0.867050 *  0.990590 *  0.517500 *   0.00000    1.000000    
    426 C     c    0.639940 *  0.124580 *  0.363650 *   0.00000    1.000000    
    427 C     c    0.148920 *  0.517410 *  0.687230 *   0.00000    1.000000    
    428 C     c    0.702740 *  0.706860 *  0.467100 *   0.00000    1.000000    
    429 C     c    0.984620 *  0.224620 *  0.321550 *   0.00000    1.000000    
    430 C     c    0.842330 *  0.152770 *  0.099050 *   0.00000    1.000000    
    431 C     c    0.810710 *  0.115460 *  0.617260 *   0.00000    1.000000    
    432 C     c    0.893860 *  0.754020 *  0.803980 *   0.00000    1.000000    
    433 C     c    0.047970 *  0.639720 *  0.240540 *   0.00000    1.000000    
    434 C     c    0.150720 *  0.060090 *  0.789550 *   0.00000    1.000000    
    435 C     c    0.379060 *  0.759070 *  0.739020 *   0.00000    1.000000    
    436 C     c    0.875550 *  0.074050 *  0.352110 *   0.00000    1.000000    
    437 C     c    0.930650 *  0.227830 *  0.400340 *   0.00000    1.000000    
    438 C     c    0.028930 *  0.661580 *  0.006420 *   0.00000    1.000000    
    439 C     c    0.392710 *  0.456680 *  0.094030 *   0.00000    1.000000    
    440 C     c    0.379710 *  0.594760 *  0.142440 *   0.00000    1.000000    
    441 C     c    0.845230 *  0.517290 *  0.114420 *   0.00000    1.000000    
    442 C     c    0.475950 *  0.007140 *  0.138630 *   0.00000    1.000000    
    443 C     c    0.981890 *  0.591190 *  0.876680 *   0.00000    1.000000    
    444 C     c    0.874730 *  0.617850 *  0.575290 *   0.00000    1.000000    
    445 C     c    0.523490 *  0.427170 *  0.806610 *   0.00000    1.000000    
    446 C     c    0.978350 *  0.273730 *  0.902850 *   0.00000    1.000000    
    447 C     c    0.181010 *  0.068590 *  0.558250 *   0.00000    1.000000    
    448 C     c    0.996530 *  0.725180 *  0.640360 *   0.00000    1.000000    
    449 C     c    0.361780 *  0.034000 *  0.604690 *   0.00000    1.000000    
    450 C     c    0.319680 *  0.158570 *  0.365760 *   0.00000    1.000000    
    451 C     c    0.931500 *  0.216230 *  0.697700 *   0.00000    1.000000    
    452 C     c    0.783270 *  0.001430 *  0.158230 *   0.00000    1.000000    
    453 C     c    0.128110 *  0.429860 *  0.683320 *   0.00000    1.000000    
    454 C     c    0.102400 *  0.786840 *  0.861060 *   0.00000    1.000000    
    455 C     c    0.903420 *  0.560140 *  0.937950 *   0.00000    1.000000    
    456 C     c    0.054700 *  0.041690 *  0.089840 *   0.00000    1.000000    
    457 C     c    0.318510 *  0.210460 *  0.780480 *   0.00000    1.000000    
    458 C     c    0.060400 *  0.424050 *  0.289000 *   0.00000    1.000000    
    459 C     c    0.681470 *  0.476560 *  0.545920 *   0.00000    1.000000    
    460 C     c    0.821760 *  0.340300 *  0.724850 *   0.00000    1.000000    
    461 C     c    0.111980 *  0.883300 *  0.824510 *   0.00000    1.000000    
    462 C     c    0.298980 *  0.161350 *  0.474480 *   0.00000    1.000000    
    463 C     c    0.883510 *  0.134650 *  0.684730 *   0.00000    1.000000    
    464 C     c    0.570750 *  0.172390 *  0.308420 *   0.00000    1.000000    
    465 C     c    0.362230 *  0.365900 *  0.071760 *   0.00000    1.000000    
    466 C     c    0.071640 *  0.393300 *  0.008360 *   0.00000    1.000000    
    467 C     c    0.139150 *  0.663560 *  0.756030 *   0.00000    1.000000    
    468 C     c    0.941720 *  0.564830 *  0.542520 *   0.00000    1.000000    
    469 C     c    0.227900 *  0.429720 *  0.986080 *   0.00000    1.000000    
    470 C     c    0.081220 *  0.223320 *  0.161880 *   0.00000    1.000000    
    471 C     c    0.658160 *  0.621080 *  0.609550 *   0.00000    1.000000    
    472 C     c    0.783950 *  0.260640 *  0.161130 *   0.00000    1.000000    
    473 C     c    0.554090 *  0.985230 *  0.351910 *   0.00000    1.000000    
    474 C     c    0.236570 *  0.550070 *  0.680210 *   0.00000    1.000000    
    475 C     c    0.542490 *  0.346920 *  0.202270 *   0.00000    1.000000    
    476 C     c    0.044200 *  0.489480 *  0.353630 *   0.00000    1.000000    
    477 C     c    0.891140 *  0.924210 *  0.932310 *   0.00000    1.000000    
    478 C     c    0.915320 *  0.389340 *  0.319980 *   0.00000    1.000000    
    479 C     c    0.607530 *  0.154230 *  0.076490 *   0.00000    1.000000    
    480 C     c    0.168010 *  0.046580 *  0.880540 *   0.00000    1.000000    
    481 C     c    0.614720 *  0.451090 *  0.488770 *   0.00000    1.000000    
    482 C     c    0.181580 *  0.240000 *  0.559640 *   0.00000    1.000000    
    483 C     c    0.900440 *  0.677020 *  0.646690 *   0.00000    1.000000    
    484 C     c    0.907830 *  0.108480 *  0.031690 *   0.00000    1.000000    
    485 C     c    0.723280 *  0.259630 *  0.511110 *   0.00000    1.000000    
    486 C     c    0.414410 *  0.663380 *  0.712450 *   0.00000    1.000000    
    487 C     c    0.687510 *  0.444230 *  0.160550 *   0.00000    1.000000    
    488 C     c    0.174390 *  0.351150 *  0.363070 *   0.00000    1.000000    
    489 C     c    0.956210 *  0.854420 *  0.256750 *   0.00000    1.000000    
    490 C     c    0.363320 *  0.667620 *  0.901670 *   0.00000    1.000000    
    491 C     c    0.187690 *  0.575990 *  0.321220 *   0.00000    1.000000    
    492 C     c    0.764080 *  0.178900 *  0.261150 *   0.00000    1.000000    
    493 C     c    0.532120 *  0.079130 *  0.863140 *   0.00000    1.000000    
    494 C     c    0.740070 *  0.598170 *  0.842560 *   0.00000    1.000000    
    495 C     c    0.516960 *  0.832720 *  0.763040 *   0.00000    1.000000    
    496 C     c    0.300860 *  0.317580 *  0.787230 *   0.00000    1.000000    
    497 C     c    0.843050 *  0.327530 *  0.315160 *   0.00000    1.000000    
    498 C     c    0.482610 *  0.143370 *  0.811270 *   0.00000    1.000000    
    499 C     c    0.551640 *  0.535260 *  0.938460 *   0.00000    1.000000    
    500 C     c    0.402360 *  0.124250 *  0.015940 *   0.00000    1.000000    
    501 C     c    0.908330 *  0.790590 *  0.398160 *   0.00000    1.000000    
    502 C     c    0.351330 *  0.311410 *  0.656720 *   0.00000    1.000000    
    503 C     c    0.619270 *  0.969270 *  0.178420 *   0.00000    1.000000    
    504 C     c    0.758740 *  0.017580 *  0.449560 *   0.00000    1.000000    
    505 C     c    0.850980 *  0.512880 *  0.750060 *   0.00000    1.000000    
    506 C     c    0.844790 *  0.078330 *  0.537520 *   0.00000    1.000000    
    507 C     c    0.967880 *  0.604060 *  0.182760 *   0.00000    1.000000    
    508 C     c    0.656910 *  0.889270 *  0.721640 *   0.00000    1.000000    
    509 C     c    0.322370 *  0.759080 *  0.206730 *   0.00000    1.000000    
    510 C     c    0.145600 *  0.767410 *  0.944260 *   0.00000    1.000000    
    511 C     c    0.047900 *  0.156210 *  0.308960 *   0.00000    1.000000    
    512 C     c    0.093400    0.176450    0.948390     0.00000    1.000000    
--------------------------------------------------------------------------------


  Constraints : 

--------------------------------------------------------------------------------
  Constraint no.      Unconstrained     Constrained    Coefficient    Offset
                         Variable         Variable
--------------------------------------------------------------------------------
           1              Strain 1        Strain 2       1.00000      0.0000
           2              Strain 1        Strain 3       1.00000      0.0000
--------------------------------------------------------------------------------

  Brillouin zone sampling points :

--------------------------------------------------------------------------------
  Point number          x          y          z            Weight
--------------------------------------------------------------------------------
        1           0.000000   0.000000   0.000000     1.00000000
--------------------------------------------------------------------------------


********************************************************************************
*  General input information                                                   *
********************************************************************************

  Species output for all configurations : 

--------------------------------------------------------------------------------
  Species    Type    Atomic    Atomic    Charge       Radii (Angs)     Library
                     Number     Mass       (e)     Cova   Ionic  VDW   Symbol
--------------------------------------------------------------------------------
    C        Core        6      12.01   0.000000   0.770  0.000  1.530          
--------------------------------------------------------------------------------


  Lattice summation method               =    Ewald          (3-D)
                                         =    Parry          (2-D)
                                         =    Saunders et al (1-D)
  Accuracy factor for lattice sums       =   12.000


  Time limit = Infinity

  Maximum range for interatomic potentials =    100000.000000 Angstroms

  Brenner et al 2002 potential to be used with explicit splines for P


********************************************************************************
*  Output for configuration   1                                                *
********************************************************************************


  Components of energy : 

--------------------------------------------------------------------------------
  Interatomic potentials     =           0.00000000 eV    
  Brenner potentials         =       -3399.16287529 eV    
  Monopole - monopole (real) =           0.00000000 eV    
  Monopole - monopole (recip)=           0.00000000 eV    
  Monopole - monopole (total)=           0.00000000 eV    
--------------------------------------------------------------------------------
  Total lattice energy       =       -3399.16287529 eV    
--------------------------------------------------------------------------------
  Total lattice energy       =         -327967.2565 kJ/(mole unit cells)
--------------------------------------------------------------------------------


  Number of variables =     1534

  Maximum number of calculations  =          2000
  Maximum Hessian update interval =            10
  Maximum step size               =   1.000000000
  Maximum parameter tolerance     =   0.000010000
  Maximum function  tolerance     =   0.000010000
  Maximum gradient  tolerance     =   0.001000000
  Maximum gradient  component     =   0.010000000

  Maximum LM gradient tolerance   =   0.900000000
  Symmetry not applied to optimisation

  Cell parameters to be optimised using strains

  Limited Memory BFGS to be used of order   10

  BFGS hessian update to be used

  General 2-D hessian to be used

  Start of bulk optimisation :

  Cycle:      0 Energy:     -3399.162875  Gnorm:      0.001652  CPU:    2.008
  Cycle:      1 Energy:     -3399.162922  Gnorm:      0.001182  CPU:    2.027
  Cycle:      2 Energy:     -3399.162941  Gnorm:      0.000666  CPU:    2.040
  Cycle:      3 Energy:     -3399.162953  Gnorm:      0.000472  CPU:    2.053
  Cycle:      4 Energy:     -3399.162958  Gnorm:      0.000524  CPU:    2.066
  Cycle:      5 Energy:     -3399.162960  Gnorm:      0.000233  CPU:    2.078
  Cycle:      6 Energy:     -3399.162962  Gnorm:      0.000216  CPU:    2.091
  Cycle:      7 Energy:     -3399.162964  Gnorm:      0.000203  CPU:    2.104
  Cycle:      8 Energy:     -3399.162965  Gnorm:      0.000163  CPU:    2.117
  Cycle:      9 Energy:     -3399.162966  Gnorm:      0.000109  CPU:    2.136
  Cycle:     10 Energy:     -3399.162966  Gnorm:      0.000072  CPU:    2.149
  Cycle:     11 Energy:     -3399.162966  Gnorm:      0.000072  CPU:    2.462
  Cycle:     12 Energy:     -3399.162966  Gnorm:      0.000072  CPU:    2.506
  Cycle:     13 Energy:     -3399.162966  Gnorm:      0.000156  CPU:    2.525
  Cycle:     14 Energy:     -3399.162966  Gnorm:      0.000060  CPU:    2.538


  **** Optimisation achieved ****


  Final energy =   -3399.16296654 eV
  Final Gnorm  =       0.00005970

  Components of energy : 

--------------------------------------------------------------------------------
  Interatomic potentials     =           0.00000000 eV    
  Brenner potentials         =       -3399.16296654 eV    
  Monopole - monopole (real) =           0.00000000 eV    
  Monopole - monopole (recip)=           0.00000000 eV    
  Monopole - monopole (total)=           0.00000000 eV    
--------------------------------------------------------------------------------
  Total lattice energy       =       -3399.16296654 eV    
--------------------------------------------------------------------------------
  Total lattice energy       =         -327967.2653 kJ/(mole unit cells)
--------------------------------------------------------------------------------

  Final fractional coordinates of atoms :

--------------------------------------------------------------------------------
   No.  Atomic        x           y          z          Radius
        Label       (Frac)      (Frac)     (Frac)       (Angs) 
--------------------------------------------------------------------------------
     1  C     c     0.408703    0.954607    0.993939    0.000000
     2  C     c     0.031560    0.056186    0.682953    0.000000
     3  C     c     0.345771    0.933750    0.704668    0.000000
     4  C     c     0.320247    0.494796    0.487855    0.000000
     5  C     c     0.090433    0.050828    0.537107    0.000000
     6  C     c     0.042048    0.741553    0.547084    0.000000
     7  C     c     0.889014    0.225766    0.913491    0.000000
     8  C     c     0.669180    0.309145    0.265346    0.000000
     9  C     c     0.976601    0.172061    0.553142    0.000000
    10  C     c     0.521797    0.376903    0.895027    0.000000
    11  C     c     0.471582    0.556011    0.580953    0.000000
    12  C     c     0.696995    0.329396    0.369059    0.000000
    13  C     c     0.041209    0.080932    0.363688    0.000000
    14  C     c     0.544097    0.317165    0.102670    0.000000
    15  C     c     0.088603    0.000778    0.356279    0.000000
    16  C     c     0.944948    0.075407    0.866917    0.000000
    17  C     c     0.494698    0.769170    0.265725    0.000000
    18  C     c     0.606480    0.232779    0.943609    0.000000
    19  C     c     0.437861    0.415972    0.760422    0.000000
    20  C     c     0.431202    0.794648    0.817681    0.000000
    21  C     c     0.543564    0.692220    0.877319    0.000000
    22  C     c     0.445020    0.292119    0.070776    0.000000
    23  C     c     0.296005    0.776727    0.293238    0.000000
    24  C     c     0.191634    0.376383    0.645128    0.000000
    25  C     c     0.096393    0.479930    0.427509    0.000000
    26  C     c     0.465563    0.321239    0.241122    0.000000
    27  C     c     0.765573    0.388963    0.327497    0.000000
    28  C     c     0.087521    0.825954    0.531123    0.000000
    29  C     c     0.087710    0.137899    0.218975    0.000000
    30  C     c     0.021019    0.280504    0.675677    0.000000
    31  C     c     0.104137    0.826848    0.431000    0.000000
    32  C     c     0.285717    0.344926    0.137383    0.000000
    33  C     c     0.522268    0.770468    0.520207    0.000000
    34  C     c     0.337928    0.108753    0.934810    0.000000
    35  C     c     0.142228    0.369547    0.268632    0.000000
    36  C     c     0.452929    0.163861    0.216918    0.000000
    37  C     c     0.678301    0.435505    0.832578    0.000000
    38  C     c     0.384902    0.172080    0.855910    0.000000
    39  C     c     0.220087    0.606360    0.423033    0.000000
    40  C     c     0.036128    0.381193    0.698556    0.000000
    41  C     c     0.423894    0.625781    0.461698    0.000000
    42  C     c     0.297560    0.393137    0.510466    0.000000
    43  C     c     0.307680    0.266348    0.192989    0.000000
    44  C     c     0.073740    0.503157    0.524829    0.000000
    45  C     c     0.712536    0.953339    0.978571    0.000000
    46  C     c     0.486471    0.146694    0.357471    0.000000
    47  C     c     0.998151    0.753780    0.152280    0.000000
    48  C     c     0.602112    0.230064    0.142624    0.000000
    49  C     c     0.228748    0.238675    0.917614    0.000000
    50  C     c     0.277353    0.557841    0.274957    0.000000
    51  C     c     0.693753    0.884352    0.634214    0.000000
    52  C     c     0.142931    0.063338    0.049973    0.000000
    53  C     c     0.788544    0.411413    0.006250    0.000000
    54  C     c     0.222009    0.080087    0.114579    0.000000
    55  C     c     0.225985    0.222609    0.236266    0.000000
    56  C     c     0.682611    0.681536    0.121930    0.000000
    57  C     c     0.332510    0.464059    0.655773    0.000000
    58  C     c     0.824324    0.624713    0.368674    0.000000
    59  C     c     0.401122    0.184714    0.312947    0.000000
    60  C     c     0.408919    0.579296    0.865523    0.000000
    61  C     c     0.958878    0.530094    0.360618    0.000000
    62  C     c     0.396317    0.245751    0.926214    0.000000
    63  C     c     0.158321    0.413577    0.425600    0.000000
    64  C     c     0.830821    0.148639    0.209671    0.000000
    65  C     c     0.883986    0.795730    0.525312    0.000000
    66  C     c     0.528741    0.807147    0.015108    0.000000
    67  C     c     0.895462    0.947378    0.443780    0.000000
    68  C     c     0.468399    0.415759    0.563480    0.000000
    69  C     c     0.885929    0.874524    0.123783    0.000000
    70  C     c     0.027867    0.066815    0.182764    0.000000
    71  C     c     0.405027    0.368422    0.357960    0.000000
    72  C     c     0.241790    0.244619    0.481033    0.000000
    73  C     c     0.705491    0.973983    0.316072    0.000000
    74  C     c     0.929517    0.820716    0.945137    0.000000
    75  C     c     0.067023    0.531166    0.905955    0.000000
    76  C     c     0.929962    0.472664    0.533649    0.000000
    77  C     c     0.367168    0.663541    0.620518    0.000000
    78  C     c     0.602223    0.461997    0.786464    0.000000
    79  C     c     0.182550    0.891859    0.058416    0.000000
    80  C     c     0.242102    0.555692    0.511959    0.000000
    81  C     c     0.765790    0.656462    0.923361    0.000000
    82  C     c     0.845462    0.277631    0.227775    0.000000
    83  C     c     0.033214    0.702180    0.462327    0.000000
    84  C     c     0.832509    0.965631    0.679112    0.000000
    85  C     c     0.589386    0.078121    0.520072    0.000000
    86  C     c     0.326680    0.476850    0.242351    0.000000
    87  C     c     0.728148    0.130007    0.974890    0.000000
    88  C     c     0.349938    0.680831    0.003234    0.000000
    89  C     c     0.633281    0.028568    0.339495    0.000000
    90  C     c     0.045671    0.908355    0.984471    0.000000
    91  C     c     0.397523    0.151983    0.143404    0.000000
    92  C     c     0.175765    0.867799    0.218081    0.000000
    93  C     c     0.774895    0.537994    0.255833    0.000000
    94  C     c     0.053422    0.637803    0.623872    0.000000
    95  C     c     0.378811    0.273599    0.569569    0.000000
    96  C     c     0.391087    0.272637    0.253394    0.000000
    97  C     c     0.398208    0.063396    0.100600    0.000000
    98  C     c     0.208742    0.847121    0.135901    0.000000
    99  C     c     0.613528    0.600888    0.367558    0.000000
   100  C     c     0.039041    0.196062    0.879626    0.000000
   101  C     c     0.867649    0.327317    0.558542    0.000000
   102  C     c     0.423863    0.752398    0.192584    0.000000
   103  C     c     0.171250    0.490420    0.533870    0.000000
   104  C     c     0.940853    0.019623    0.209868    0.000000
   105  C     c     0.624733    0.233910    0.501010    0.000000
   106  C     c     0.102693    0.920341    0.219373    0.000000
   107  C     c     0.271714    0.760802    0.455814    0.000000
   108  C     c     0.164931    0.967074    0.413421    0.000000
   109  C     c     0.215722    0.520498    0.968791    0.000000
   110  C     c     0.372658    0.371972    0.824543    0.000000
   111  C     c     0.881897    0.040759    0.732157    0.000000
   112  C     c     0.952488    0.160989    0.464830    0.000000
   113  C     c     0.519333    0.645423    0.709523    0.000000
   114  C     c     0.646330    0.247342    0.779500    0.000000
   115  C     c     0.251221    0.051632    0.262244    0.000000
   116  C     c     0.800074    0.983703    0.947577    0.000000
   117  C     c     0.746780    0.942231    0.393654    0.000000
   118  C     c     0.373823    0.449264    0.566610    0.000000
   119  C     c     0.087983    0.592837    0.704298    0.000000
   120  C     c     0.035344    0.310758    0.986322    0.000000
   121  C     c     0.197279    0.699919    0.433252    0.000000
   122  C     c     0.324911    0.303851    0.489912    0.000000
   123  C     c     0.674407    0.538262    0.036074    0.000000
   124  C     c     0.791447    0.091476    0.400033    0.000000
   125  C     c     0.764272    0.736092    0.704717    0.000000
   126  C     c     0.563650    0.040346    0.174328    0.000000
   127  C     c     0.208032    0.822255    0.306563    0.000000
   128  C     c     0.025434    0.096407    0.594852    0.000000
   129  C     c     0.846034    0.720078    0.148347    0.000000
   130  C     c     0.960169    0.432830    0.169413    0.000000
   131  C     c     0.250401    0.755523    0.121718    0.000000
   132  C     c     0.609168    0.691599    0.180451    0.000000
   133  C     c     0.088778    0.741584    0.027341    0.000000
   134  C     c     0.970330    0.779446    0.322347    0.000000
   135  C     c     0.147201    0.303096    0.919131    0.000000
   136  C     c     0.925984    0.384407    0.099943    0.000000
   137  C     c     0.583798    0.771565    0.590580    0.000000
   138  C     c     0.034289    0.485081    0.993709    0.000000
   139  C     c     0.637519    0.397344    0.230464    0.000000
   140  C     c     0.817519    0.594791    0.776782    0.000000
   141  C     c     0.667829    0.723187    0.733324    0.000000
   142  C     c     0.727078    0.860630    0.254039    0.000000
   143  C     c     0.798609    0.814037    0.667910    0.000000
   144  C     c     0.717253    0.647968    0.544320    0.000000
   145  C     c     0.490460    0.058966    0.498330    0.000000
   146  C     c     0.444406    0.935209    0.199538    0.000000
   147  C     c     0.161915    0.557628    0.901941    0.000000
   148  C     c     0.308010    0.288130    0.942701    0.000000
   149  C     c     0.621350    0.675563    0.419609    0.000000
   150  C     c     0.692582    0.197280    0.927112    0.000000
   151  C     c     0.961164    0.083840    0.412600    0.000000
   152  C     c     0.320343    0.944424    0.045016    0.000000
   153  C     c     0.558422    0.333020    0.385318    0.000000
   154  C     c     0.007733    0.551333    0.755034    0.000000
   155  C     c     0.965404    0.441468    0.655024    0.000000
   156  C     c     0.484940    0.832990    0.334533    0.000000
   157  C     c     0.545217    0.714902    0.450873    0.000000
   158  C     c     0.961518    0.271385    0.582049    0.000000
   159  C     c     0.399280    0.501933    0.184028    0.000000
   160  C     c     0.150038    0.594890    0.097925    0.000000
   161  C     c     0.119049    0.342031    0.825974    0.000000
   162  C     c     0.456527    0.153759    0.516721    0.000000
   163  C     c     0.768214    0.492153    0.175954    0.000000
   164  C     c     0.557352    0.147652    0.203410    0.000000
   165  C     c     0.583665    0.762522    0.234023    0.000000
   166  C     c     0.013128    0.815836    0.993018    0.000000
   167  C     c     0.240382    0.172058    0.070961    0.000000
   168  C     c     0.222763    0.217718    0.818692    0.000000
   169  C     c     0.422726    0.816681    0.400418    0.000000
   170  C     c     0.557693    0.836601    0.923990    0.000000
   171  C     c     0.578448    0.494248    0.662378    0.000000
   172  C     c     0.454386    0.845403    0.063583    0.000000
   173  C     c     0.364164    0.176097    0.548408    0.000000
   174  C     c     0.800757    0.967006    0.848670    0.000000
   175  C     c     0.776419    0.480538    0.516517    0.000000
   176  C     c     0.548607    0.214761    0.772900    0.000000
   177  C     c     0.845957    0.684017    0.737582    0.000000
   178  C     c     0.394247    0.937243    0.892625    0.000000
   179  C     c     0.301728    0.992308    0.211534    0.000000
   180  C     c     0.532191    0.280718    0.464384    0.000000
   181  C     c     0.502515    0.262693    0.693889    0.000000
   182  C     c     0.107248    0.232891    0.698679    0.000000
   183  C     c     0.323469    0.199557    0.123027    0.000000
   184  C     c     0.878968    0.932329    0.596007    0.000000
   185  C     c     0.724763    0.606531    0.088616    0.000000
   186  C     c     0.089501    0.725226    0.194099    0.000000
   187  C     c     0.616848    0.591466    0.974987    0.000000
   188  C     c     0.621507    0.480581    0.096746    0.000000
   189  C     c     0.811749    0.882003    0.818167    0.000000
   190  C     c     0.109417    0.727963    0.393978    0.000000
   191  C     c     0.438567    0.325586    0.889108    0.000000
   192  C     c     0.298319    0.060743    0.350073    0.000000
   193  C     c     0.035863    0.485160    0.822421    0.000000
   194  C     c     0.321590    0.600188    0.056235    0.000000
   195  C     c     0.960420    0.836428    0.168381    0.000000
   196  C     c     0.750638    0.955821    0.613893    0.000000
   197  C     c     0.666491    0.688640    0.961828    0.000000
   198  C     c     0.451023    0.959940    0.816621    0.000000
   199  C     c     0.425303    0.322737    0.712524    0.000000
   200  C     c     0.639966    0.982887    0.733968    0.000000
   201  C     c     0.047312    0.335296    0.560561    0.000000
   202  C     c     0.549288    0.411001    0.634048    0.000000
   203  C     c     0.941208    0.862864    0.463152    0.000000
   204  C     c     0.229626    0.975381    0.904238    0.000000
   205  C     c     0.272992    0.581067    0.761391    0.000000
   206  C     c     0.476931    0.042890    0.388829    0.000000
   207  C     c     0.684852    0.094257    0.059568    0.000000
   208  C     c     0.444363    0.828361    0.498952    0.000000
   209  C     c     0.673987    0.345916    0.860162    0.000000
   210  C     c     0.220925    0.715193    0.709176    0.000000
   211  C     c     0.722668    0.501121    0.881756    0.000000
   212  C     c     0.429660    0.215601    0.014659    0.000000
   213  C     c     0.830679    0.800722    0.094602    0.000000
   214  C     c     0.733938    0.163459    0.359639    0.000000
   215  C     c     0.680443    0.749960    0.050474    0.000000
   216  C     c     0.022430    0.900861    0.516678    0.000000
   217  C     c     0.197552    0.325873    0.091818    0.000000
   218  C     c     0.957138    0.337937    0.829188    0.000000
   219  C     c     0.553270    0.897622    0.325160    0.000000
   220  C     c     0.842792    0.837342    0.590963    0.000000
   221  C     c     0.343471    0.121499    0.624362    0.000000
   222  C     c     0.240041    0.027280    0.420784    0.000000
   223  C     c     0.954033    0.974572    0.855674    0.000000
   224  C     c     0.794827    0.755521    0.936679    0.000000
   225  C     c     0.791564    0.484838    0.338316    0.000000
   226  C     c     0.792939    0.031867    0.784397    0.000000
   227  C     c     0.833650    0.605739    0.976397    0.000000
   228  C     c     0.462285    0.211297    0.433332    0.000000
   229  C     c     0.013700    0.955522    0.689896    0.000000
   230  C     c     0.934684    0.833841    0.757998    0.000000
   231  C     c     0.324439    0.011943    0.908100    0.000000
   232  C     c     0.934427    0.685493    0.147237    0.000000
   233  C     c     0.527757    0.560488    0.360824    0.000000
   234  C     c     0.162069    0.387854    0.034521    0.000000
   235  C     c     0.243536    0.080907    0.493357    0.000000
   236  C     c     0.315187    0.376599    0.981467    0.000000
   237  C     c     0.670138    0.534668    0.333283    0.000000
   238  C     c     0.492326    0.202770    0.600147    0.000000
   239  C     c     0.780133    0.288674    0.578529    0.000000
   240  C     c     0.507749    0.567721    0.863927    0.000000
   241  C     c     0.175837    0.444224    0.203772    0.000000
   242  C     c     0.608462    0.814442    0.074115    0.000000
   243  C     c     0.833883    0.256399    0.069134    0.000000
   244  C     c     0.609653    0.814502    0.752769    0.000000
   245  C     c     0.036389    0.388524    0.799529    0.000000
   246  C     c     0.308287    0.596341    0.365687    0.000000
   247  C     c     0.969321    0.672730    0.935765    0.000000
   248  C     c     0.811329    0.790974    0.375285    0.000000
   249  C     c     0.560346    0.628512    0.801338    0.000000
   250  C     c     0.660350    0.641867    0.796390    0.000000
   251  C     c     0.892005    0.471692    0.349260    0.000000
   252  C     c     0.870413    0.445857    0.047874    0.000000
   253  C     c     0.158043    0.104929    0.959214    0.000000
   254  C     c     0.586047    0.321246    0.654119    0.000000
   255  C     c     0.531689    0.990207    0.841480    0.000000
   256  C     c     0.763896    0.084213    0.118741    0.000000
   257  C     c     0.241488    0.857052    0.498930    0.000000
   258  C     c     0.261516    0.696992    0.621529    0.000000
   259  C     c     0.933650    0.522976    0.165338    0.000000
   260  C     c     0.286860    0.737250    0.771553    0.000000
   261  C     c     0.304918    0.756578    0.552993    0.000000
   262  C     c     0.654110    0.003782    0.031873    0.000000
   263  C     c     0.886326    0.091862    0.254533    0.000000
   264  C     c     0.120198    0.577337    0.259523    0.000000
   265  C     c     0.748023    0.252291    0.412962    0.000000
   266  C     c     0.086054    0.884838    0.718830    0.000000
   267  C     c     0.350149    0.439717    0.332974    0.000000
   268  C     c     0.362008    0.848497    0.868768    0.000000
   269  C     c     0.235647    0.781274    0.949362    0.000000
   270  C     c     0.525622    0.476522    0.303932    0.000000
   271  C     c     0.653730    0.528301    0.619233    0.000000
   272  C     c     0.491948    0.392541    0.347338    0.000000
   273  C     c     0.311591    0.917696    0.526723    0.000000
   274  C     c     0.620930    0.754626    0.895962    0.000000
   275  C     c     0.792696    0.588863    0.529454    0.000000
   276  C     c     0.403260    0.997116    0.746847    0.000000
   277  C     c     0.545189    0.090832    0.951122    0.000000
   278  C     c     0.343556    0.759796    0.382288    0.000000
   279  C     c     0.474673    0.847741    0.163380    0.000000
   280  C     c     0.448413    0.994896    0.564009    0.000000
   281  C     c     0.390301    0.293069    0.412909    0.000000
   282  C     c     0.925930    0.621992    0.366070    0.000000
   283  C     c     0.119442    0.761458    0.287777    0.000000
   284  C     c     0.624217    0.857262    0.255608    0.000000
   285  C     c     0.388170    0.836664    0.671048    0.000000
   286  C     c     0.412060    0.090329    0.751528    0.000000
   287  C     c     0.170600    0.855087    0.573700    0.000000
   288  C     c     0.145506    0.281957    0.219111    0.000000
   289  C     c     0.203117    0.042660    0.713601    0.000000
   290  C     c     0.955173    0.951340    0.283609    0.000000
   291  C     c     0.799121    0.710386    0.230628    0.000000
   292  C     c     0.771963    0.785643    0.023678    0.000000
   293  C     c     0.387440    0.009480    0.340604    0.000000
   294  C     c     0.717365    0.041298    0.731765    0.000000
   295  C     c     0.596569    0.314921    0.902697    0.000000
   296  C     c     0.146140    0.327889    0.567785    0.000000
   297  C     c     0.413898    0.623070    0.553510    0.000000
   298  C     c     0.889807    0.129051    0.931212    0.000000
   299  C     c     0.350026    0.144705    0.711277    0.000000
   300  C     c     0.360858    0.427920    0.910491    0.000000
   301  C     c     0.933760    0.486897    0.985514    0.000000
   302  C     c     0.236351    0.933539    0.998482    0.000000
   303  C     c     0.813931    0.880263    0.728759    0.000000
   304  C     c     0.016861    0.427398    0.562268    0.000000
   305  C     c     0.383114    0.509126    0.930623    0.000000
   306  C     c     0.193464    0.871093    0.403160    0.000000
   307  C     c     0.623701    0.141884    0.462521    0.000000
   308  C     c     0.500922    0.720501    0.975841    0.000000
   309  C     c     0.080728    0.976996    0.482548    0.000000
   310  C     c     0.481700    0.556922    0.438392    0.000000
   311  C     c     0.660738    0.824537    0.571709    0.000000
   312  C     c     0.813720    0.595739    0.065558    0.000000
   313  C     c     0.056301    0.834130    0.339081    0.000000
   314  C     c     0.245247    0.215714    0.331037    0.000000
   315  C     c     0.240214    0.954652    0.680058    0.000000
   316  C     c     0.631148    0.064874    0.601808    0.000000
   317  C     c     0.371556    0.663261    0.394988    0.000000
   318  C     c     0.211817    0.896526    0.847467    0.000000
   319  C     c     0.738416    0.002739    0.537435    0.000000
   320  C     c     0.066132    0.579990    0.037483    0.000000
   321  C     c     0.561804    0.168504    0.996327    0.000000
   322  C     c     0.150991    0.705413    0.112810    0.000000
   323  C     c     0.782823    0.702876    0.409520    0.000000
   324  C     c     0.511239    0.557003    0.661495    0.000000
   325  C     c     0.065637    0.090662    0.763178    0.000000
   326  C     c     0.144602    0.530242    0.183082    0.000000
   327  C     c     0.983053    0.384108    0.249357    0.000000
   328  C     c     0.378961    0.963652    0.257207    0.000000
   329  C     c     0.933729    0.511519    0.705979    0.000000
   330  C     c     0.024099    0.792402    0.716131    0.000000
   331  C     c     0.987818    0.253524    0.153323    0.000000
   332  C     c     0.580489    0.867270    0.156105    0.000000
   333  C     c     0.201525    0.617272    0.833337    0.000000
   334  C     c     0.478140    0.980145    0.039592    0.000000
   335  C     c     0.281161    0.684270    0.848089    0.000000
   336  C     c     0.948168    0.699540    0.427621    0.000000
   337  C     c     0.813713    0.290726    0.898718    0.000000
   338  C     c     0.856127    0.420117    0.534359    0.000000
   339  C     c     0.010178    0.126240    0.827674    0.000000
   340  C     c     0.255811    0.597956    0.601486    0.000000
   341  C     c     0.599820    0.693625    0.655590    0.000000
   342  C     c     0.445937    0.724867    0.882598    0.000000
   343  C     c     0.752799    0.854791    0.427301    0.000000
   344  C     c     0.546964    0.534699    0.137150    0.000000
   345  C     c     0.298461    0.763199    0.026988    0.000000
   346  C     c     0.980597    0.683762    0.302833    0.000000
   347  C     c     0.340771    0.506039    0.395902    0.000000
   348  C     c     0.920061    0.743004    0.895463    0.000000
   349  C     c     0.374143    0.581693    0.768031    0.000000
   350  C     c     0.099082    0.922518    0.059792    0.000000
   351  C     c     0.391753    0.492722    0.721531    0.000000
   352  C     c     0.974640    0.044094    0.035723    0.000000
   353  C     c     0.935135    0.945251    0.759181    0.000000
   354  C     c     0.592647    0.269107    0.318361    0.000000
   355  C     c     0.625463    0.465027    0.298986    0.000000
   356  C     c     0.192621    0.104930    0.644028    0.000000
   357  C     c     0.581468    0.009515    0.662471    0.000000
   358  C     c     0.390953    0.530041    0.026415    0.000000
   359  C     c     0.053168    0.928348    0.302230    0.000000
   360  C     c     0.309133    0.016078    0.114007    0.000000
   361  C     c     0.047192    0.937108    0.883642    0.000000
   362  C     c     0.792292    0.543208    0.427269    0.000000
   363  C     c     0.665456    0.908887    0.913948    0.000000
   364  C     c     0.977823    0.927232    0.602601    0.000000
   365  C     c     0.571681    0.249641    0.584609    0.000000
   366  C     c     0.271025    0.829538    0.877552    0.000000
   367  C     c     0.356808    0.846319    0.045683    0.000000
   368  C     c     0.199850    0.396421    0.516157    0.000000
   369  C     c     0.218824    0.356007    0.783929    0.000000
   370  C     c     0.066790    0.950184    0.143550    0.000000
   371  C     c     0.158836    0.235864    0.087797    0.000000
   372  C     c     0.144131    0.249351    0.779549    0.000000
   373  C     c     0.953496    0.281720    0.244238    0.000000
   374  C     c     0.479393    0.886404    0.690872    0.000000
   375  C     c     0.066760    0.730280    0.787933    0.000000
   376  C     c     0.817596    0.427704    0.776637    0.000000
   377  C     c     0.682349    0.830474    0.873820    0.000000
   378  C     c     0.869713    0.964942    0.150376    0.000000
   379  C     c     0.167140    0.889366    0.656318    0.000000
   380  C     c     0.667615    0.298499    0.703554    0.000000
   381  C     c     0.403347    0.919094    0.514678    0.000000
   382  C     c     0.540554    0.633744    0.162191    0.000000
   383  C     c     0.570390    0.937943    0.913713    0.000000
   384  C     c     0.733416    0.481088    0.973572    0.000000
   385  C     c     0.466872    0.318413    0.535651    0.000000
   386  C     c     0.283974    0.378996    0.661209    0.000000
   387  C     c     0.847340    0.264819    0.390853    0.000000
   388  C     c     0.928058    0.294182    0.091331    0.000000
   389  C     c     0.793157    0.626074    0.272945    0.000000
   390  C     c     0.480749    0.574082    0.061109    0.000000
   391  C     c     0.804891    0.082658    0.955633    0.000000
   392  C     c     0.247372    0.154472    0.969440    0.000000
   393  C     c     0.784328    0.791493    0.278828    0.000000
   394  C     c     0.449680    0.669878    0.144248    0.000000
   395  C     c     0.903960    0.978536    0.361080    0.000000
   396  C     c     0.561089    0.001206    0.994024    0.000000
   397  C     c     0.492468    0.493898    0.212678    0.000000
   398  C     c     0.728827    0.256341    0.854277    0.000000
   399  C     c     0.693221    0.258284    0.183565    0.000000
   400  C     c     0.966291    0.969888    0.985216    0.000000
   401  C     c     0.794026    0.317533    0.994443    0.000000
   402  C     c     0.753288    0.307357    0.667778    0.000000
   403  C     c     0.520920    0.488417    0.507626    0.000000
   404  C     c     0.538449    0.444105    0.966681    0.000000
   405  C     c     0.031160    0.585901    0.551673    0.000000
   406  C     c     0.374682    0.808450    0.576876    0.000000
   407  C     c     0.720729    0.085744    0.644267    0.000000
   408  C     c     0.163052    0.192579    0.636416    0.000000
   409  C     c     0.292261    0.975943    0.593759    0.000000
   410  C     c     0.208740    0.272353    0.391511    0.000000
   411  C     c     0.446090    0.673119    0.038619    0.000000
   412  C     c     0.772265    0.812281    0.866503    0.000000
   413  C     c     0.087534    0.237566    0.014750    0.000000
   414  C     c     0.633344    0.388383    0.425272    0.000000
   415  C     c     0.505485    0.960589    0.641975    0.000000
   416  C     c     0.899290    0.294069    0.747719    0.000000
   417  C     c     0.265598    0.424266    0.190237    0.000000
   418  C     c     0.570824    0.408297    0.047704    0.000000
   419  C     c     0.005603    0.649459    0.794106    0.000000
   420  C     c     0.194476    0.120308    0.211246    0.000000
   421  C     c     0.702535    0.806959    0.490266    0.000000
   422  C     c     0.857374    0.367832    0.847098    0.000000
   423  C     c     0.713140    0.959483    0.214091    0.000000
   424  C     c     0.230640    0.573998    0.043544    0.000000
   425  C     c     0.867052    0.990591    0.517498    0.000000
   426  C     c     0.639939    0.124577    0.363651    0.000000
   427  C     c     0.148922    0.517411    0.687229    0.000000
   428  C     c     0.702736    0.706859    0.467102    0.000000
   429  C     c     0.984621    0.224624    0.321548    0.000000
   430  C     c     0.842329    0.152766    0.099046    0.000000
   431  C     c     0.810708    0.115459    0.617260    0.000000
   432  C     c     0.893858    0.754023    0.803977    0.000000
   433  C     c     0.047972    0.639721    0.240535    0.000000
   434  C     c     0.150723    0.060090    0.789554    0.000000
   435  C     c     0.379058    0.759070    0.739019    0.000000
   436  C     c     0.875551    0.074055    0.352105    0.000000
   437  C     c     0.930650    0.227831    0.400336    0.000000
   438  C     c     0.028930    0.661577    0.006419    0.000000
   439  C     c     0.392709    0.456684    0.094029    0.000000
   440  C     c     0.379705    0.594759    0.142436    0.000000
   441  C     c     0.845233    0.517292    0.114422    0.000000
   442  C     c     0.475954    0.007144    0.138627    0.000000
   443  C     c     0.981887    0.591191    0.876684    0.000000
   444  C     c     0.874730    0.617855    0.575293    0.000000
   445  C     c     0.523487    0.427167    0.806608    0.000000
   446  C     c     0.978348    0.273727    0.902851    0.000000
   447  C     c     0.181009    0.068593    0.558248    0.000000
   448  C     c     0.996530    0.725181    0.640357    0.000000
   449  C     c     0.361777    0.033997    0.604691    0.000000
   450  C     c     0.319676    0.158569    0.365757    0.000000
   451  C     c     0.931501    0.216232    0.697702    0.000000
   452  C     c     0.783269    0.001430    0.158232    0.000000
   453  C     c     0.128109    0.429856    0.683320    0.000000
   454  C     c     0.102398    0.786842    0.861060    0.000000
   455  C     c     0.903417    0.560140    0.937954    0.000000
   456  C     c     0.054701    0.041691    0.089838    0.000000
   457  C     c     0.318509    0.210459    0.780479    0.000000
   458  C     c     0.060398    0.424047    0.288997    0.000000
[...]

-------------------------------------------------------------------------------
    1 =    1.00000      2 =    1.00000      3 =    1.00000
-------------------------------------------------------------------------------


  Phonon Calculation : 

  Number of k points for this configuration =        1

--------------------------------------------------------------------------------
  K point      1 =   0.000000  0.000000  0.000000  Weight =    1.000
--------------------------------------------------------------------------------

  Frequencies (cm-1) [NB: Negative implies an imaginary mode]:

   -0.00   -0.00    0.00   93.84  101.55  118.07  120.26  124.25  128.17
  131.29  133.78  136.34  140.05  141.70  142.52  146.34  148.01  148.59
  151.13  151.41  157.55  162.82  164.41  164.74  165.26  168.43  170.64
  172.42  174.28  175.40  179.01  180.51  184.43  185.31  186.65  188.97
  189.69  190.34  192.29  194.60  196.21  198.09  200.71  202.32  203.60
  204.81  209.31  209.57  210.51  214.59  215.81  217.16  218.44  219.47
  220.75  221.57  222.84  226.10  226.74  227.41  229.62  231.06  233.20
  233.42  236.01  237.02  237.99  238.86  240.70  241.15  244.06  245.95
  245.96  247.26  248.61  250.28  251.07  252.44  253.69  254.86  255.19
  257.08  258.83  260.31  261.35  262.19  262.72  264.25  266.07  267.38
  268.85  270.28  270.69  273.47  274.44  274.73  275.91  277.09  277.81
  280.37  281.87  282.65  283.85  286.24  286.83  287.61  289.00  289.46
  290.12  291.28  292.42  294.91  295.14  296.76  298.37  299.15  301.11
  301.60  303.42  304.52  306.24  307.46  308.20  310.33  310.58  311.12
  313.02  314.02  315.10  316.45  317.36  318.63  319.78  320.59  322.52
  323.26  324.46  326.11  326.71  328.40  328.85  330.04  330.51  332.20
  332.86  333.85  335.04  335.80  337.27  338.54  340.49  341.36  341.40
  343.42  343.95  344.55  345.17  346.18  347.85  348.36  349.32  350.15
  351.37  351.59  352.54  354.36  356.17  357.71  358.45  359.21  360.51
  361.19  362.26  364.14  365.36  366.20  366.62  367.91  369.03  369.91
  371.20  371.84  373.99  374.42  375.36  375.86  376.63  377.47  378.29
  380.55  380.97  382.36  382.61  384.52  384.94  385.47  386.15  386.56
  388.56  389.69  390.59  391.95  392.04  393.43  395.82  396.09  396.87
  396.93  398.02  399.21  399.90  400.81  402.71  402.99  404.31  404.77
  406.57  408.02  408.92  409.72  410.88  412.30  412.54  414.39  414.74
  415.16  416.12  417.26  418.12  418.92  419.69  421.00  421.41  422.38
  423.81  424.54  425.32  425.45  427.09  427.99  429.68  430.82  431.07
  432.86  434.27  434.58  435.19  436.01  436.54  438.01  438.52  440.81
  441.36  442.92  443.99  444.79  444.99  446.46  447.54  447.63  448.53
  448.96  450.02  450.06  451.62  453.56  453.98  455.65  456.73  457.51
  458.19  459.17  460.38  461.13  461.74  462.47  464.13  464.95  465.54
  466.68  468.34  469.02  469.90  470.41  471.29  472.70  474.07  474.41
  475.02  476.79  477.65  478.41  479.57  481.00  481.43  482.64  483.31
  483.88  484.67  486.00  487.16  488.08  488.81  489.38  490.42  491.70
  492.35  493.23  494.59  495.21  495.95  496.91  498.14  499.12  499.50
  499.68  501.22  501.40  502.30  502.56  505.21  505.78  506.59  507.41
  508.80  510.31  510.52  511.42  511.81  513.36  514.58  515.51  516.19
  517.44  517.76  518.48  519.69  519.99  521.15  521.68  522.92  524.30
  524.76  525.70  526.42  527.59  528.11  529.50  531.12  531.35  532.69
  533.51  534.27  534.37  536.90  537.28  538.03  539.43  540.61  541.21
  542.76  543.08  543.94  544.21  545.81  546.02  546.66  548.01  548.17
  548.46  550.76  551.22  552.25  553.42  554.72  555.28  556.53  557.80
  557.84  559.19  559.94  561.69  563.38  563.77  564.12  565.37  565.77
  566.22  567.81  568.25  569.17  569.75  571.34  571.76  573.32  574.22
  575.60  575.92  576.73  577.64  577.95  579.17  579.57  580.44  582.19
  583.36  583.92  584.64  585.47  586.18  587.46  588.27  589.14  589.71
  591.35  591.81  592.86  594.19  594.65  596.21  596.61  597.86  598.16
  598.80  599.52  600.34  601.29  602.48  603.53  604.71  605.04  606.46
  607.49  608.00  608.24  609.61  609.84  610.85  611.56  612.57  613.44
  614.23  615.74  616.79  617.08  617.27  618.76  619.54  620.43  621.57
  622.93  623.16  624.80  625.30  626.22  627.05  628.79  629.10  630.21
  630.58  632.56  632.97  633.73  634.10  634.98  635.30  636.38  637.99
  639.10  639.45  640.04  641.39  641.88  642.84  643.27  643.61  645.23
  646.21  646.73  648.48  649.29  650.82  651.21  651.31  651.73  652.59
  654.07  654.64  655.44  656.34  657.37  658.40  659.10  660.24  660.78
  661.65  663.05  663.97  666.54  667.18  668.74  669.16  669.71  670.63
  671.45  672.97  673.37  673.57  674.19  674.53  675.22  676.04  677.41
  677.71  678.19  679.16  681.05  681.64  682.70  683.48  685.10  685.57
  685.98  687.29  688.35  689.16  690.59  691.04  692.39  693.09  694.19
  695.76  696.19  696.71  697.98  698.30  699.37  699.48  700.31  700.44
  701.42  702.92  704.88  705.19  706.95  707.82  707.98  709.18  709.72
  710.34  711.54  711.93  714.06  714.32  715.60  716.45  717.79  718.97
  719.57  720.95  721.72  722.40  723.40  724.02  724.51  725.46  726.93
  727.86  729.85  730.80  731.52  732.31  733.06  734.15  734.47  735.19
  736.05  736.44  737.34  737.48  739.08  740.40  742.04  742.63  744.13
  744.75  746.02  746.97  748.61  749.47  749.84  750.90  751.53  752.31
  753.18  753.63  754.12  755.13  755.40  756.71  759.05  759.48  760.35
  761.01  761.67  762.63  763.01  765.45  765.89  766.79  768.04  768.67
  768.73  770.16  771.19  771.87  773.53  775.40  775.74  775.94  777.96
  778.21  779.48  780.68  781.26  782.20  783.39  784.44  785.82  786.31
  787.74  788.04  788.75  789.67  790.54  791.47  792.27  793.65  794.11
  795.31  796.87  797.21  798.02  798.46  800.44  800.83  801.44  801.96
  803.12  804.08  804.60  805.78  807.51  808.19  808.80  809.77  810.22
  811.68  812.49  812.64  813.31  814.56  815.99  816.16  817.08  818.51
  819.68  820.54  821.88  822.64  823.38  823.76  824.95  826.00  827.33
  827.65  828.89  829.30  830.34  832.39  832.57  833.35  834.57  835.17
  835.76  836.59  837.52  839.56  840.51  841.43  842.57  843.10  844.42
  845.14  845.90  846.72  847.74  849.51  849.91  851.69  851.96  852.52
  853.60  854.34  855.35  855.90  856.94  857.56  858.60  859.31  859.86
  861.15  862.23  863.26  865.12  865.45  865.79  866.45  867.26  868.24
  868.92  869.82  870.74  871.49  872.02  872.99  874.57  876.00  876.79
  877.44  877.89  878.78  880.09  880.46  881.45  881.89  882.74  883.57
  884.26  885.32  887.17  887.26  888.37  889.59  890.93  891.54  892.19
  893.79  894.78  896.07  897.12  898.22  898.84  899.53  900.11  901.58
  902.08  902.74  903.48  904.87  906.02  906.43  906.62  907.47  908.77
  909.55  909.72  911.21  912.49  912.82  914.01  916.40  917.47  918.64
  919.31  920.46  921.12  922.38  924.17  924.38  925.30  926.24  927.72
  928.43  929.45  929.65  931.05  932.69  934.13  934.92  935.44  936.57
  937.12  938.12  939.07  940.55  941.63  941.89  944.27  945.03  945.50
  947.08  947.56  948.74  949.80  950.48  951.45  952.91  953.69  954.37
  954.64  956.80  957.32  958.99  960.58  961.47  962.00  964.41  965.13
  965.49  966.64  967.34  967.74  969.29  970.06  970.42  970.88  972.64
  973.67  975.23  975.94  976.78  977.40  978.09  980.13  980.52  981.35
  982.98  984.02  984.66  985.83  987.21  988.15  989.23  989.83  991.05
  992.72  993.89  994.26  995.90  997.33  999.09  999.74 1000.31 1001.46
 1003.14 1003.72 1004.34 1005.23 1006.55 1007.31 1008.99 1009.28 1010.19
 1013.77 1013.90 1014.96 1015.83 1016.88 1017.45 1018.55 1019.87 1021.69
 1022.20 1023.19 1024.04 1025.21 1025.92 1027.06 1028.57 1029.57 1031.40
 1031.49 1032.26 1033.38 1035.54 1036.30 1037.29 1038.39 1039.21 1040.92
 1042.23 1042.53 1043.57 1044.20 1044.61 1045.77 1047.49 1048.16 1049.86
 1051.12 1053.94 1054.47 1055.15 1055.57 1057.44 1058.32 1059.14 1060.85
 1061.44 1061.93 1062.94 1064.61 1065.43 1066.24 1068.64 1069.06 1069.67
 1070.02 1071.51 1071.80 1073.05 1074.62 1076.60 1077.24 1077.74 1079.10
 1079.96 1082.51 1083.02 1083.49 1084.48 1085.65 1086.68 1087.40 1088.34
 1089.77 1090.90 1091.02 1092.47 1093.87 1094.35 1097.13 1097.59 1098.56
 1099.89 1100.05 1101.86 1102.69 1104.12 1104.72 1106.05 1108.18 1109.24
 1109.65 1110.76 1111.28 1112.91 1114.49 1115.15 1115.30 1116.60 1119.45
 1120.32 1120.75 1121.98 1122.88 1122.98 1124.96 1125.49 1127.09 1127.28
 1128.14 1129.27 1131.07 1131.23 1133.04 1133.63 1134.75 1135.75 1137.04
 1137.05 1138.61 1140.70 1142.20 1142.88 1143.39 1146.19 1147.64 1148.01
 1148.29 1150.16 1150.30 1151.03 1152.34 1153.64 1155.07 1155.36 1156.50
 1158.16 1158.97 1161.80 1162.16 1164.56 1164.81 1165.16 1165.78 1168.05
 1169.25 1170.78 1171.84 1172.93 1174.51 1175.81 1176.96 1177.81 1178.83
 1181.38 1182.03 1183.13 1183.47 1184.39 1184.61 1186.20 1187.51 1188.40
 1190.03 1190.90 1191.12 1193.15 1195.52 1195.92 1197.72 1198.81 1199.03
 1200.92 1201.16 1203.29 1204.28 1206.38 1207.64 1207.84 1208.83 1209.45
 1209.89 1211.61 1212.75 1213.66 1213.71 1215.27 1216.41 1218.20 1218.42
 1219.26 1221.15 1221.98 1225.29 1225.81 1226.35 1227.39 1228.27 1229.77
 1230.57 1231.58 1231.92 1233.52 1235.23 1236.02 1238.36 1239.46 1240.19
 1241.63 1242.39 1244.24 1246.07 1246.69 1248.44 1250.01 1250.51 1252.11
 1253.66 1255.48 1256.13 1257.47 1258.60 1260.37 1261.68 1262.53 1264.12
 1264.72 1265.44 1266.04 1267.73 1268.50 1269.81 1270.73 1271.25 1272.87
 1273.75 1275.19 1275.84 1276.52 1277.81 1279.19 1279.78 1281.12 1281.98
 1283.30 1283.75 1286.03 1286.30 1287.70 1288.54 1289.54 1291.07 1291.32
 1292.79 1294.68 1294.94 1296.52 1298.17 1299.36 1301.76 1302.63 1303.00
 1304.53 1305.25 1306.15 1307.60 1308.11 1310.19 1311.32 1311.65 1312.27
 1312.85 1314.96 1315.31 1315.83 1316.58 1318.16 1321.38 1322.97 1324.11
 1324.67 1327.16 1327.86 1329.32 1330.73 1333.21 1333.80 1335.14 1336.81
 1337.84 1338.77 1339.92 1340.61 1342.07 1342.50 1343.64 1344.74 1346.05
 1347.50 1348.15 1348.70 1349.43 1349.64 1350.49 1352.47 1353.13 1354.06
 1355.27 1358.28 1359.28 1361.21 1361.30 1362.56 1363.68 1365.21 1366.19
 1367.07 1368.72 1369.55 1370.09 1370.94 1372.32 1373.20 1373.92 1375.53
 1376.64 1378.93 1379.24 1380.97 1383.00 1383.76 1384.03 1384.76 1385.72
 1387.56 1387.58 1389.16 1392.75 1394.08 1395.14 1395.60 1396.07 1397.44
 1398.27 1401.73 1402.34 1402.79 1404.69 1406.13 1406.80 1407.49 1409.18
 1410.09 1410.96 1412.43 1412.65 1415.67 1417.26 1418.28 1418.68 1420.73
 1421.77 1423.90 1424.38 1428.32 1428.97 1430.24 1430.80 1433.11 1434.93
 1435.80 1437.45 1438.29 1439.98 1440.83 1442.67 1444.28 1445.74 1447.58
 1449.51 1449.81 1451.62 1453.86 1454.90 1457.33 1457.67 1459.25 1460.37
 1461.13 1463.21 1464.02 1466.49 1467.29 1467.68 1469.78 1470.96 1472.67
 1474.89 1476.26 1476.55 1479.37 1480.45 1481.75 1482.29 1482.83 1484.94
 1485.68 1486.92 1490.33 1490.54 1491.07 1492.56 1492.93 1494.14 1495.06
 1496.12 1498.57 1499.64 1500.66 1501.61 1503.27 1504.65 1507.01 1507.88
 1508.43 1508.83 1510.16 1510.62 1511.53 1511.88 1513.51 1514.17 1516.96
 1517.67 1518.68 1521.93 1522.56 1523.69 1525.66 1527.09 1530.00 1531.03
 1532.51 1533.24 1533.80 1535.16 1537.25 1539.21 1540.00 1542.10 1542.69
 1543.48 1547.85 1548.35 1550.07 1550.87 1554.15 1560.08 1561.51 1564.86
 1566.46 1567.54 1568.79 1569.74 1571.21 1573.39 1573.87 1574.73 1576.29
 1577.64 1580.02 1580.60 1582.33 1583.43 1584.82 1588.65 1589.20 1590.68
 1593.18 1595.20 1595.81 1596.52 1597.70 1599.12 1600.46 1601.27 1602.58
 1603.07 1604.68 1607.26 1609.97 1610.49 1610.98 1613.36 1613.62 1614.82
 1618.91 1620.32 1620.79 1621.21 1623.08 1623.51 1623.61 1626.80 1629.67
 1631.73 1633.68 1640.14 1641.18 1642.06 1643.35 1644.74 1645.21 1645.43
 1645.94 1652.82 1654.26 1655.35 1658.11 1658.76 1660.42 1660.74 1661.52
 1665.80 1666.92 1667.82 1668.18 1670.12 1671.18 1671.91 1673.35 1673.67
 1674.77 1676.98 1677.88 1682.80 1693.62 1694.15 1695.28 1696.31 1700.46
 1700.77 1702.49 1705.67 1706.60 1706.83 1707.89 1712.54 1715.15 1719.79
 1720.90 1723.45 1726.80 1727.82 1733.38 1734.18 1738.20 1738.67 1742.53
 1743.31 1744.93 1753.11 1763.22 1765.40 1771.28 1774.59 1778.43 1778.99
 1784.40 1792.55 1793.64 1795.22 1796.31 1804.25 1808.23 1810.82 1812.17
 1812.58 1823.97 1825.82 1835.34 1835.47 1836.97 1837.03 1844.50 1849.65
 1855.27 1857.96 1858.26 1861.86 1868.84 1881.20 1893.90 1900.10 1924.28
 1927.09 1928.75 1930.30 1941.82 1943.08 1946.80 1958.94 1962.54 1972.36
 1976.29 1997.48 1997.85 2015.08 2053.35 2071.28 2093.90 2133.12 2137.79
 2178.29 2178.85 2213.48 2214.19 2246.81 2251.17 2297.95 2342.96 2411.70
 2424.79 2450.18 2456.62 2476.75 2494.50 2509.69 2519.34 2525.41 2553.47
 2560.83 2591.07 2612.97 2626.36 2639.27 2663.14 2673.65 2676.42 2679.31
 2686.34 2705.97 2716.86 2723.26 2750.02 2768.56 2783.36 2812.90 2813.74
 2830.43 2850.55 2890.80 2921.87 2946.37 2964.36 2976.92 2986.52 2994.40
 3011.06 3091.87 3093.79 3120.90 3150.72 3153.43 3195.53 3215.32 3223.78
 3300.59 3525.53 3608.40 3721.39 3809.77 4356.19


--------------------------------------------------------------------------------
  Phonon properties (per mole of unit cells): Temperature =      0.000 K
--------------------------------------------------------------------------------
  Zero point energy            =       95.062674 eV
--------------------------------------------------------------------------------

  Phonon density of states : 

--------------------------------------------------------------------------------
 Frequency (cm-1) Density of States                                             
--------------------------------------------------------------------------------
    0.00000 |                                                              0.001
   68.06554 |******                                                        0.005
  136.13107 |**************************                                    0.022
  204.19661 |*************************************                         0.031
  272.26214 |*********************************************                 0.037
  340.32768 |*****************************************************         0.044
  408.39321 |********************************************************      0.046
  476.45875 |***********************************************************   0.049
  544.52428 |************************************************************  0.050
  612.58982 |************************************************************  0.050
  680.65535 |*********************************************************     0.048
  748.72089 |***********************************************************   0.049
  816.78643 |***********************************************************   0.049
  884.85196 |******************************************************        0.045
  952.91750 |**************************************************            0.042
 1020.98303 |**************************************************            0.042
 1089.04857 |*************************************************             0.041
 1157.11410 |*********************************************                 0.037
 1225.17964 |************************************************              0.040
 1293.24517 |*********************************************                 0.038
 1361.31071 |******************************************                    0.035
 1429.37624 |***************************************                       0.033
 1497.44178 |**********************************                            0.029
 1565.50732 |************************************                          0.030
 1633.57285 |****************************                                  0.023
 1701.63839 |*****************                                             0.014
 1769.70392 |***************                                               0.013
 1837.76946 |*******                                                       0.007
 1905.83499 |*******                                                       0.007
 1973.90053 |***                                                           0.003
 2041.96606 |**                                                            0.002
 2110.03160 |*                                                             0.001
 2178.09714 |***                                                           0.003
 2246.16267 |**                                                            0.002
 2314.22821 |                                                              0.001
 2382.29374 |**                                                            0.002
 2450.35928 |***                                                           0.003
 2518.42481 |***                                                           0.003
 2586.49035 |***                                                           0.003
 2654.55588 |*****                                                         0.005
 2722.62142 |***                                                           0.003
 2790.68695 |***                                                           0.003
 2858.75249 |*                                                             0.001
 2926.81803 |***                                                           0.003
 2994.88356 |                                                              0.001
 3062.94910 |**                                                            0.002
 3131.01463 |**                                                            0.002
 3199.08017 |*                                                             0.001
 3267.14570 |                                                              0.001
 3335.21124 |                                                              0.000
 3403.27677 |                                                              0.000
 3471.34231 |                                                              0.001
 3539.40784 |                                                              0.000
 3607.47338 |                                                              0.001
 3675.53892 |                                                              0.001
 3743.60445 |                                                              0.001
 3811.66999 |                                                              0.000
 3879.73552 |                                                              0.000
 3947.80106 |                                                              0.000
 4015.86659 |                                                              0.000
 4083.93213 |                                                              0.000
 4151.99766 |                                                              0.000
 4220.06320 |                                                              0.000
 4288.12873 |                                                              0.001
--------------------------------------------------------------------------------



  Time to end of optimisation =       9.1649 seconds


  Peak dynamic memory used =       4.48 MB 


  Timing analysis for GULP :

--------------------------------------------------------------------------------
  Task / Subroutine                                          Time (Seconds)
--------------------------------------------------------------------------------
  Calculation of real space energy and derivatives                0.0005
  Calculation of Brenner energy and derivatives                   6.0887
  Calculation of phonons                                          2.7213
  Global summation overhead                                       1.3647
--------------------------------------------------------------------------------
  Total CPU time                                                  9.1651
--------------------------------------------------------------------------------


  CIF file written as opti.cif


  Job Finished at 01:25.05  5th December   2020                               

