********************************************************************************
*                       GENERAL UTILITY LATTICE PROGRAM                        *
*                                 Julian Gale                                  *
*                       Curtin Institute for Computation                       *
*                    School of Molecular and Life Sciences                     *
*                    Curtin University, Western Australia                      *
********************************************************************************
* Version = 5.2.0 * Last modified =  17th December 2019                        *
********************************************************************************
*  optimise     - perform optimisation run                                     *
*  conv         - constant volume calculation                                  *
*  isotropic    - only isotropic cell expansion to be allowed                  *
*  lbfgs        - use limited memory BFGS update                               *
********************************************************************************
* ASE calculation                                                              *
********************************************************************************


  Job Started  at 16:20.15 12th August     2020                               

  Number of CPUs =     1


  Total number of configurations input =      1

********************************************************************************
*  Input for Configuration =   1                                               *
********************************************************************************

  Formula = C64                                                         

  Number of irreducible atoms/shells =      64


  Total number atoms/shells =      64

  Dimensionality = 3               :  Bulk   



  Cartesian lattice vectors (Angstroms) :

        7.589189    0.000000    0.000000
        0.000000    7.589189    0.000000
        0.000000    0.000000    7.589189

  Cell parameters (Angstroms/Degrees):

  a =       7.5892    alpha =  90.0000
  b =       7.5892    beta  =  90.0000
  c =       7.5892    gamma =  90.0000

  Initial cell volume =         437.105333 Angs**3

  Temperature of configuration =   0.00     K 

  Pressure of configuration =         0.000 GPa 

  Fractional coordinates of asymmetric unit :

--------------------------------------------------------------------------------
   No.  Atomic       x           y          z         Charge      Occupancy
        Label      (Frac)      (Frac)     (Frac)        (e)         (Frac)  
--------------------------------------------------------------------------------
      1 C     c    0.082860    0.546420    0.420470     0.00000    1.000000    
      2 C     c    0.300470 *  0.098480 *  0.158050 *   0.00000    1.000000    
      3 C     c    0.135430 *  0.397320 *  0.321400 *   0.00000    1.000000    
      4 C     c    0.905490 *  0.925920 *  0.500530 *   0.00000    1.000000    
      5 C     c    0.496470 *  0.888330 *  0.033250 *   0.00000    1.000000    
      6 C     c    0.816780 *  0.441270 *  0.290230 *   0.00000    1.000000    
      7 C     c    0.945770 *  0.607820 *  0.761780 *   0.00000    1.000000    
      8 C     c    0.840320 *  0.519590 *  0.629820 *   0.00000    1.000000    
      9 C     c    0.152890 *  0.348160 *  0.688790 *   0.00000    1.000000    
     10 C     c    0.417360 *  0.733360 *  0.168120 *   0.00000    1.000000    
     11 C     c    0.912950 *  0.222370 *  0.789680 *   0.00000    1.000000    
     12 C     c    0.594660 *  0.873970 *  0.593910 *   0.00000    1.000000    
     13 C     c    0.450710 *  0.212820 *  0.666970 *   0.00000    1.000000    
     14 C     c    0.222920 *  0.959920 *  0.855440 *   0.00000    1.000000    
     15 C     c    0.544790 *  0.575680 *  0.447490 *   0.00000    1.000000    
     16 C     c    0.011880 *  0.923390 *  0.168010 *   0.00000    1.000000    
     17 C     c    0.170450 *  0.793090 *  0.921890 *   0.00000    1.000000    
     18 C     c    0.324040 *  0.692350 *  0.651930 *   0.00000    1.000000    
     19 C     c    0.762670 *  0.347470 *  0.713160 *   0.00000    1.000000    
     20 C     c    0.064920 *  0.226020 *  0.316700 *   0.00000    1.000000    
     21 C     c    0.939020 *  0.137230 *  0.452960 *   0.00000    1.000000    
     22 C     c    0.882990 *  0.573160 *  0.439880 *   0.00000    1.000000    
     23 C     c    0.483380 *  0.799280 *  0.721410 *   0.00000    1.000000    
     24 C     c    0.800220 *  0.235140 *  0.302270 *   0.00000    1.000000    
     25 C     c    0.720270 *  0.151940 *  0.111960 *   0.00000    1.000000    
     26 C     c    0.529470 *  0.570940 *  0.123160 *   0.00000    1.000000    
     27 C     c    0.623950 *  0.264260 *  0.582370 *   0.00000    1.000000    
     28 C     c    0.661500 *  0.958000 *  0.159510 *   0.00000    1.000000    
     29 C     c    0.510700 *  0.875200 *  0.296820 *   0.00000    1.000000    
     30 C     c    0.368170 *  0.034740 *  0.972170 *   0.00000    1.000000    
     31 C     c    0.838010 *  0.084970 *  0.940300 *   0.00000    1.000000    
     32 C     c    0.887020 *  0.741300 *  0.878490 *   0.00000    1.000000    
     33 C     c    0.329920 *  0.369220 *  0.625000 *   0.00000    1.000000    
     34 C     c    0.234910 *  0.665930 *  0.237200 *   0.00000    1.000000    
     35 C     c    0.097820 *  0.482080 *  0.828230 *   0.00000    1.000000    
     36 C     c    0.357300 *  0.059430 *  0.561620 *   0.00000    1.000000    
     37 C     c    0.205560 *  0.709380 *  0.458790 *   0.00000    1.000000    
     38 C     c    0.577830 *  0.283650 *  0.000200 *   0.00000    1.000000    
     39 C     c    0.096250 *  0.111340 *  0.154850 *   0.00000    1.000000    
     40 C     c    0.783300 *  0.916310 *  0.845700 *   0.00000    1.000000    
     41 C     c    0.406360 *  0.526900 *  0.561540 *   0.00000    1.000000    
     42 C     c    0.094690 *  0.865200 *  0.548260 *   0.00000    1.000000    
     43 C     c    0.072230 *  0.412820 *  0.017680 *   0.00000    1.000000    
     44 C     c    0.238240 *  0.455410 *  0.151960 *   0.00000    1.000000    
     45 C     c    0.203740 *  0.654420 *  0.807420 *   0.00000    1.000000    
     46 C     c    0.918830 *  0.504530 *  0.126220 *   0.00000    1.000000    
     47 C     c    0.828050 *  0.833420 *  0.193820 *   0.00000    1.000000    
     48 C     c    0.017560 *  0.212950 *  0.992570 *   0.00000    1.000000    
     49 C     c    0.812710 *  0.769570 *  0.389370 *   0.00000    1.000000    
     50 C     c    0.835940 *  0.673740 *  0.062610 *   0.00000    1.000000    
     51 C     c    0.185060 *  0.009430 *  0.659170 *   0.00000    1.000000    
     52 C     c    0.457630 *  0.216810 *  0.274090 *   0.00000    1.000000    
     53 C     c    0.431410 *  0.378370 *  0.134190 *   0.00000    1.000000    
     54 C     c    0.387750 *  0.028060 *  0.356610 *   0.00000    1.000000    
     55 C     c    0.620120 *  0.243470 *  0.401380 *   0.00000    1.000000    
     56 C     c    0.467290 *  0.174440 *  0.869580 *   0.00000    1.000000    
     57 C     c    0.671060 *  0.425450 *  0.885090 *   0.00000    1.000000    
     58 C     c    0.760010 *  0.942560 *  0.648250 *   0.00000    1.000000    
     59 C     c    0.130720 *  0.786950 *  0.105540 *   0.00000    1.000000    
     60 C     c    0.614630 *  0.488110 *  0.292770 *   0.00000    1.000000    
     61 C     c    0.609350 *  0.770250 *  0.432430 *   0.00000    1.000000    
     62 C     c    0.047380 *  0.170810 *  0.640760 *   0.00000    1.000000    
     63 C     c    0.654620 *  0.612400 *  0.969500 *   0.00000    1.000000    
     64 C     c    0.597000 *  0.795710 *  0.888070 *   0.00000    1.000000    
--------------------------------------------------------------------------------


  Constraints : 

--------------------------------------------------------------------------------
  Constraint no.      Unconstrained     Constrained    Coefficient    Offset
                         Variable         Variable
--------------------------------------------------------------------------------
           1              Strain 1        Strain 2       1.00000      0.0000
           2              Strain 1        Strain 3       1.00000      0.0000
--------------------------------------------------------------------------------


********************************************************************************
*  General input information                                                   *
********************************************************************************

  Species output for all configurations : 

--------------------------------------------------------------------------------
  Species    Type    Atomic    Atomic    Charge       Radii (Angs)     Library
                     Number     Mass       (e)     Cova   Ionic  VDW   Symbol
--------------------------------------------------------------------------------
    C        Core        6      12.01   0.000000   0.770  0.000  1.530          
--------------------------------------------------------------------------------


  Lattice summation method               =    Ewald          (3-D)
                                         =    Parry          (2-D)
                                         =    Saunders et al (1-D)
  Accuracy factor for lattice sums       =   12.000


  Analytic derivatives to be used

  Time limit = Infinity

  Maximum range for interatomic potentials =    100000.000000 Angstroms

  Brenner et al 2002 potential to be used with explicit splines for P


********************************************************************************
*  Output for configuration   1                                                *
********************************************************************************


  Components of energy : 

--------------------------------------------------------------------------------
  Interatomic potentials     =           0.00000000 eV    
  Brenner potentials         =        -424.61300226 eV    
  Monopole - monopole (real) =           0.00000000 eV    
  Monopole - monopole (recip)=           0.00000000 eV    
  Monopole - monopole (total)=           0.00000000 eV    
--------------------------------------------------------------------------------
  Total lattice energy       =        -424.61300226 eV    
--------------------------------------------------------------------------------
  Total lattice energy       =          -40968.6639 kJ/(mole unit cells)
--------------------------------------------------------------------------------


  Number of variables =      189

  Maximum number of calculations  =          2000
  Maximum Hessian update interval =            10
  Maximum step size               =   1.000000000
  Maximum parameter tolerance     =   0.000010000
  Maximum function  tolerance     =   0.000010000
  Maximum gradient  tolerance     =   0.001000000
  Maximum gradient  component     =   0.010000000

  Maximum LM gradient tolerance   =   0.900000000
  Symmetry not applied to optimisation

  Limited Memory BFGS to be used of order   10

  BFGS hessian update to be used

  Lower half triangular hessian to be used

  Start of bulk optimisation :

  Cycle:      0 Energy:      -424.613002  Gnorm:      0.312298  CPU:    0.013
  Cycle:      1 Energy:      -424.696797  Gnorm:      0.217487  CPU:    0.023
  Cycle:      2 Energy:      -424.755641  Gnorm:      0.183907  CPU:    0.038
  Cycle:      3 Energy:      -424.785801  Gnorm:      0.060402  CPU:    0.049
  Cycle:      4 Energy:      -424.793610  Gnorm:      0.052967  CPU:    0.054
  Cycle:      5 Energy:      -424.809098  Gnorm:      0.064531  CPU:    0.058
  Cycle:      6 Energy:      -424.817109  Gnorm:      0.099517  CPU:    0.074
  Cycle:      7 Energy:      -424.829202  Gnorm:      0.039325  CPU:    0.084
  Cycle:      8 Energy:      -424.833211  Gnorm:      0.030530  CPU:    0.089
  Cycle:      9 Energy:      -424.837068  Gnorm:      0.035890  CPU:    0.093
  Cycle:     10 Energy:      -424.841949  Gnorm:      0.043038  CPU:    0.097
  Cycle:     11 Energy:      -424.845568  Gnorm:      0.029115  CPU:    0.100
  Cycle:     12 Energy:      -424.847643  Gnorm:      0.018767  CPU:    0.121
  Cycle:     13 Energy:      -424.849510  Gnorm:      0.020112  CPU:    0.126
  Cycle:     14 Energy:      -424.850554  Gnorm:      0.016948  CPU:    0.131
  Cycle:     15 Energy:      -424.851763  Gnorm:      0.014952  CPU:    0.135
  Cycle:     16 Energy:      -424.852435  Gnorm:      0.013758  CPU:    0.138
  Cycle:     17 Energy:      -424.852867  Gnorm:      0.011040  CPU:    0.142
  Cycle:     18 Energy:      -424.853382  Gnorm:      0.013866  CPU:    0.162
  Cycle:     19 Energy:      -424.853728  Gnorm:      0.007995  CPU:    0.168
  Cycle:     20 Energy:      -424.853900  Gnorm:      0.006519  CPU:    0.173
  Cycle:     21 Energy:      -424.854221  Gnorm:      0.006380  CPU:    0.176
  Cycle:     22 Energy:      -424.854290  Gnorm:      0.014714  CPU:    0.183
  Cycle:     23 Energy:      -424.854504  Gnorm:      0.006109  CPU:    0.201
  Cycle:     24 Energy:      -424.854635  Gnorm:      0.004345  CPU:    0.207
  Cycle:     25 Energy:      -424.854773  Gnorm:      0.005757  CPU:    0.212
  Cycle:     26 Energy:      -424.854980  Gnorm:      0.007390  CPU:    0.216
  Cycle:     27 Energy:      -424.855036  Gnorm:      0.014584  CPU:    0.219
  Cycle:     28 Energy:      -424.855278  Gnorm:      0.004433  CPU:    0.233
  Cycle:     29 Energy:      -424.855353  Gnorm:      0.004297  CPU:    0.244
  Cycle:     30 Energy:      -424.855487  Gnorm:      0.005291  CPU:    0.249
  Cycle:     31 Energy:      -424.855688  Gnorm:      0.005962  CPU:    0.253
  Cycle:     32 Energy:      -424.855784  Gnorm:      0.008005  CPU:    0.259
  Cycle:     33 Energy:      -424.855938  Gnorm:      0.004486  CPU:    0.272
  Cycle:     34 Energy:      -424.856068  Gnorm:      0.004529  CPU:    0.284
  Cycle:     35 Energy:      -424.856229  Gnorm:      0.007587  CPU:    0.289
  Cycle:     36 Energy:      -424.856385  Gnorm:      0.006830  CPU:    0.293
  Cycle:     37 Energy:      -424.856519  Gnorm:      0.004715  CPU:    0.297
  Cycle:     38 Energy:      -424.856721  Gnorm:      0.005296  CPU:    0.300
  Cycle:     39 Energy:      -424.856833  Gnorm:      0.007069  CPU:    0.313
  Cycle:     40 Energy:      -424.856971  Gnorm:      0.005069  CPU:    0.325
  Cycle:     41 Energy:      -424.857158  Gnorm:      0.004122  CPU:    0.330
  Cycle:     42 Energy:      -424.857273  Gnorm:      0.007093  CPU:    0.334
  Cycle:     43 Energy:      -424.857407  Gnorm:      0.005802  CPU:    0.337
  Cycle:     44 Energy:      -424.857523  Gnorm:      0.004659  CPU:    0.341
  Cycle:     45 Energy:      -424.857697  Gnorm:      0.006817  CPU:    0.354
  Cycle:     46 Energy:      -424.857799  Gnorm:      0.006776  CPU:    0.365
  Cycle:     47 Energy:      -424.857884  Gnorm:      0.004179  CPU:    0.370
  Cycle:     48 Energy:      -424.858000  Gnorm:      0.003299  CPU:    0.374
  Cycle:     49 Energy:      -424.858060  Gnorm:      0.004449  CPU:    0.378
  Cycle:     50 Energy:      -424.858137  Gnorm:      0.002977  CPU:    0.391
  Cycle:     51 Energy:      -424.858180  Gnorm:      0.004014  CPU:    0.403
  Cycle:     52 Energy:      -424.858222  Gnorm:      0.002429  CPU:    0.408
  Cycle:     53 Energy:      -424.858251  Gnorm:      0.002130  CPU:    0.413
  Cycle:     54 Energy:      -424.858287  Gnorm:      0.003056  CPU:    0.416
  Cycle:     55 Energy:      -424.858310  Gnorm:      0.002944  CPU:    0.420
  Cycle:     56 Energy:      -424.858327  Gnorm:      0.001741  CPU:    0.441
  Cycle:     57 Energy:      -424.858347  Gnorm:      0.001641  CPU:    0.447
  Cycle:     58 Energy:      -424.858363  Gnorm:      0.002155  CPU:    0.452
  Cycle:     59 Energy:      -424.858382  Gnorm:      0.002041  CPU:    0.456
  Cycle:     60 Energy:      -424.858396  Gnorm:      0.001349  CPU:    0.462
  Cycle:     61 Energy:      -424.858410  Gnorm:      0.001575  CPU:    0.480
  Cycle:     62 Energy:      -424.858421  Gnorm:      0.002295  CPU:    0.487
  Cycle:     63 Energy:      -424.858433  Gnorm:      0.001323  CPU:    0.491
  Cycle:     64 Energy:      -424.858445  Gnorm:      0.001174  CPU:    0.495
  Cycle:     65 Energy:      -424.858453  Gnorm:      0.001612  CPU:    0.499
  Cycle:     66 Energy:      -424.858463  Gnorm:      0.001588  CPU:    0.502
  Cycle:     67 Energy:      -424.858472  Gnorm:      0.001232  CPU:    0.512
  Cycle:     68 Energy:      -424.858481  Gnorm:      0.001337  CPU:    0.527
  Cycle:     69 Energy:      -424.858488  Gnorm:      0.001433  CPU:    0.533
  Cycle:     70 Energy:      -424.858498  Gnorm:      0.001279  CPU:    0.538
  Cycle:     71 Energy:      -424.858517  Gnorm:      0.002359  CPU:    0.541
  Cycle:     72 Energy:      -424.858532  Gnorm:      0.003183  CPU:    0.545
  Cycle:     73 Energy:      -424.858550  Gnorm:      0.001811  CPU:    0.558
  Cycle:     74 Energy:      -424.858571  Gnorm:      0.001819  CPU:    0.569
  Cycle:     75 Energy:      -424.858592  Gnorm:      0.002070  CPU:    0.574
  Cycle:     76 Energy:      -424.858616  Gnorm:      0.005953  CPU:    0.579
  Cycle:     77 Energy:      -424.858660  Gnorm:      0.002221  CPU:    0.582
  Cycle:     78 Energy:      -424.858680  Gnorm:      0.001632  CPU:    0.586
  Cycle:     79 Energy:      -424.858706  Gnorm:      0.002274  CPU:    0.606
  Cycle:     80 Energy:      -424.858729  Gnorm:      0.004766  CPU:    0.612
  Cycle:     81 Energy:      -424.858760  Gnorm:      0.002745  CPU:    0.616
  Cycle:     82 Energy:      -424.858791  Gnorm:      0.001772  CPU:    0.620
  Cycle:     83 Energy:      -424.858809  Gnorm:      0.002060  CPU:    0.624
  Cycle:     84 Energy:      -424.858826  Gnorm:      0.003155  CPU:    0.637
  Cycle:     85 Energy:      -424.858843  Gnorm:      0.001731  CPU:    0.649
  Cycle:     86 Energy:      -424.858852  Gnorm:      0.001355  CPU:    0.655
  Cycle:     87 Energy:      -424.858863  Gnorm:      0.001383  CPU:    0.659
  Cycle:     88 Energy:      -424.858868  Gnorm:      0.002893  CPU:    0.663
  Cycle:     89 Energy:      -424.858876  Gnorm:      0.001080  CPU:    0.666
  Cycle:     90 Energy:      -424.858879  Gnorm:      0.000717  CPU:    0.669
  Cycle:     91 Energy:      -424.858882  Gnorm:      0.000822  CPU:    0.689
  Cycle:     92 Energy:      -424.858887  Gnorm:      0.000827  CPU:    0.695
  Cycle:     93 Energy:      -424.858888  Gnorm:      0.001139  CPU:    0.702
  Cycle:     94 Energy:      -424.858891  Gnorm:      0.000586  CPU:    0.706
  Cycle:     95 Energy:      -424.858892  Gnorm:      0.000381  CPU:    0.709
  Cycle:     96 Energy:      -424.858894  Gnorm:      0.000725  CPU:    0.722
  Cycle:     97 Energy:      -424.858894  Gnorm:      0.000484  CPU:    0.734
  Cycle:     98 Energy:      -424.858895  Gnorm:      0.000284  CPU:    0.739
  Cycle:     99 Energy:      -424.858895  Gnorm:      0.000280  CPU:    0.743
  Cycle:    100 Energy:      -424.858896  Gnorm:      0.000341  CPU:    0.747
  Cycle:    101 Energy:      -424.858896  Gnorm:      0.000457  CPU:    0.751
  Cycle:    102 Energy:      -424.858897  Gnorm:      0.000278  CPU:    0.771
  Cycle:    103 Energy:      -424.858897  Gnorm:      0.000288  CPU:    0.777
  Cycle:    104 Energy:      -424.858898  Gnorm:      0.000311  CPU:    0.781
  Cycle:    105 Energy:      -424.858898  Gnorm:      0.000625  CPU:    0.785
  Cycle:    106 Energy:      -424.858899  Gnorm:      0.000257  CPU:    0.789
  Cycle:    107 Energy:      -424.858899  Gnorm:      0.000220  CPU:    0.792
  Cycle:    108 Energy:      -424.858899  Gnorm:      0.000266  CPU:    0.812
  Cycle:    109 Energy:      -424.858900  Gnorm:      0.000413  CPU:    0.821
  Cycle:    110 Energy:      -424.858900  Gnorm:      0.000307  CPU:    0.825
  Cycle:    111 Energy:      -424.858901  Gnorm:      0.000357  CPU:    0.828
  Cycle:    112 Energy:      -424.858901  Gnorm:      0.000415  CPU:    0.842
  Cycle:    113 Energy:      -424.858901  Gnorm:      0.000278  CPU:    0.853
  Cycle:    114 Energy:      -424.858902  Gnorm:      0.000265  CPU:    0.859
  Cycle:    115 Energy:      -424.858902  Gnorm:      0.000383  CPU:    0.863
  Cycle:    116 Energy:      -424.858903  Gnorm:      0.000306  CPU:    0.866
  Cycle:    117 Energy:      -424.858903  Gnorm:      0.000350  CPU:    0.870
  Cycle:    118 Energy:      -424.858904  Gnorm:      0.000232  CPU:    0.883


  **** Optimisation achieved ****


  Final energy =    -424.85890395 eV
  Final Gnorm  =       0.00019807

  Components of energy : 

--------------------------------------------------------------------------------
  Interatomic potentials     =           0.00000000 eV    
  Brenner potentials         =        -424.85890395 eV    
  Monopole - monopole (real) =           0.00000000 eV    
  Monopole - monopole (recip)=           0.00000000 eV    
  Monopole - monopole (total)=           0.00000000 eV    
--------------------------------------------------------------------------------
  Total lattice energy       =        -424.85890395 eV    
--------------------------------------------------------------------------------
  Total lattice energy       =          -40992.3897 kJ/(mole unit cells)
--------------------------------------------------------------------------------

  Final fractional coordinates of atoms :

--------------------------------------------------------------------------------
   No.  Atomic        x           y          z          Radius
        Label       (Frac)      (Frac)     (Frac)       (Angs) 
--------------------------------------------------------------------------------
     1  C     c     0.082860    0.546420    0.420470    0.000000
     2  C     c     0.304240    0.097891    0.161261    0.000000
     3  C     c     0.133188    0.398249    0.320659    0.000000
     4  C     c     0.908859    0.926389    0.503898    0.000000
     5  C     c     0.501113    0.887633    0.037018    0.000000
     6  C     c     0.816669    0.440987    0.294451    0.000000
     7  C     c     0.947172    0.605710    0.766068    0.000000
     8  C     c     0.843885    0.517782    0.633579    0.000000
     9  C     c     0.157182    0.348526    0.693703    0.000000
    10  C     c     0.421546    0.733760    0.171172    0.000000
    11  C     c     0.915398    0.220501    0.792929    0.000000
    12  C     c     0.599818    0.868169    0.597716    0.000000
    13  C     c     0.453271    0.213987    0.669798    0.000000
    14  C     c     0.229282    0.958926    0.856984    0.000000
    15  C     c     0.545589    0.576505    0.449208    0.000000
    16  C     c     0.016341    0.921729    0.168993    0.000000
    17  C     c     0.175143    0.793574    0.922826    0.000000
    18  C     c     0.323211    0.692216    0.650768    0.000000
    19  C     c     0.765041    0.346515    0.716679    0.000000
    20  C     c     0.064444    0.227234    0.315818    0.000000
    21  C     c     0.942108    0.138458    0.454318    0.000000
    22  C     c     0.884611    0.572365    0.443822    0.000000
    23  C     c     0.486988    0.794805    0.723733    0.000000
    24  C     c     0.802258    0.235189    0.307320    0.000000
    25  C     c     0.723560    0.151184    0.115074    0.000000
    26  C     c     0.532495    0.571707    0.126790    0.000000
    27  C     c     0.625788    0.264271    0.585114    0.000000
    28  C     c     0.666236    0.956885    0.161839    0.000000
    29  C     c     0.515050    0.875676    0.298027    0.000000
    30  C     c     0.372790    0.033788    0.975238    0.000000
    31  C     c     0.841075    0.082996    0.942426    0.000000
    32  C     c     0.885910    0.737256    0.882040    0.000000
    33  C     c     0.333378    0.370450    0.630030    0.000000
    34  C     c     0.239159    0.667019    0.238952    0.000000
    35  C     c     0.100078    0.482354    0.831862    0.000000
    36  C     c     0.360018    0.061810    0.562847    0.000000
    37  C     c     0.206893    0.708072    0.458364    0.000000
    38  C     c     0.580690    0.283125    0.003673    0.000000
    39  C     c     0.099412    0.110722    0.156722    0.000000
    40  C     c     0.785433    0.913344    0.848851    0.000000
    41  C     c     0.408511    0.527011    0.563961    0.000000
    42  C     c     0.098764    0.866318    0.549340    0.000000
    43  C     c     0.073465    0.412655    0.021483    0.000000
    44  C     c     0.241633    0.457859    0.156281    0.000000
    45  C     c     0.202259    0.656239    0.806755    0.000000
    46  C     c     0.919782    0.503405    0.130928    0.000000
    47  C     c     0.832584    0.832248    0.196336    0.000000
    48  C     c     0.017897    0.212169    0.994364    0.000000
    49  C     c     0.815264    0.769546    0.392150    0.000000
    50  C     c     0.838042    0.671897    0.066669    0.000000
    51  C     c     0.189155    0.009844    0.660675    0.000000
    52  C     c     0.459966    0.216622    0.274690    0.000000
    53  C     c     0.435261    0.380003    0.138737    0.000000
    54  C     c     0.392434    0.028504    0.357250    0.000000
    55  C     c     0.622057    0.242942    0.405062    0.000000
    56  C     c     0.470613    0.174216    0.873143    0.000000
    57  C     c     0.673729    0.424601    0.888939    0.000000
    58  C     c     0.763774    0.936448    0.651752    0.000000
    59  C     c     0.135883    0.787365    0.106039    0.000000
    60  C     c     0.616153    0.489688    0.295656    0.000000
    61  C     c     0.611712    0.770313    0.434152    0.000000
    62  C     c     0.050860    0.171838    0.644563    0.000000
    63  C     c     0.657125    0.611250    0.973638    0.000000
    64  C     c     0.599982    0.794178    0.891461    0.000000
--------------------------------------------------------------------------------

  Final internal derivatives :

--------------------------------------------------------------------------------
   No.  Atomic          a             b             c           Radius
        Label          (eV)          (eV)          (eV)        (eV/Angs)
--------------------------------------------------------------------------------
      1 C     c       0.000000      0.000000      0.000000      0.000000
      2 C     c       0.000287     -0.002593      0.000221      0.000000
      3 C     c       0.000024      0.000023      0.000083      0.000000
      4 C     c      -0.002418     -0.001249     -0.001065      0.000000
      5 C     c       0.000496      0.001357      0.003503      0.000000
      6 C     c      -0.000519      0.000114     -0.000507      0.000000
      7 C     c       0.000612     -0.002249      0.002354      0.000000
      8 C     c       0.000653     -0.000033      0.001388      0.000000
      9 C     c      -0.001768      0.001659     -0.005554      0.000000
     10 C     c       0.003984     -0.001591     -0.003040      0.000000
     11 C     c       0.002534     -0.002336     -0.005034      0.000000
     12 C     c       0.002116     -0.003409     -0.000190      0.000000
     13 C     c      -0.002277     -0.002926      0.000169      0.000000
     14 C     c       0.002715      0.000384      0.001508      0.000000
     15 C     c      -0.001301      0.000790      0.001203      0.000000
     16 C     c       0.004301      0.000872     -0.003689      0.000000
     17 C     c       0.001877      0.000884     -0.000032      0.000000
     18 C     c      -0.002042     -0.001118     -0.001484      0.000000
     19 C     c      -0.001600      0.002110      0.001768      0.000000
     20 C     c      -0.008749      0.000248     -0.002279      0.000000
     21 C     c      -0.007557      0.002793     -0.007956      0.000000
     22 C     c       0.001840     -0.001271     -0.000502      0.000000
     23 C     c      -0.000096     -0.000494     -0.000619      0.000000
     24 C     c       0.008820     -0.003438      0.009216      0.000000
     25 C     c       0.003826     -0.005224     -0.006475      0.000000
     26 C     c       0.000564     -0.002486     -0.000912      0.000000
     27 C     c      -0.002020      0.003494     -0.000333      0.000000
     28 C     c       0.001355     -0.000746     -0.000630      0.000000
     29 C     c       0.002575      0.002182     -0.004416      0.000000
     30 C     c      -0.000057     -0.002050     -0.001387      0.000000
     31 C     c       0.002335     -0.001586     -0.001231      0.000000
     32 C     c       0.003156     -0.002779      0.004598      0.000000
     33 C     c      -0.001557     -0.001556     -0.003090      0.000000
     34 C     c      -0.000389      0.002615     -0.000892      0.000000
     35 C     c       0.000911      0.000457     -0.001583      0.000000
     36 C     c      -0.004180      0.000563      0.005449      0.000000
     37 C     c      -0.002055      0.004037     -0.000029      0.000000
     38 C     c      -0.004145      0.004829     -0.000335      0.000000
     39 C     c      -0.001875     -0.000724     -0.002397      0.000000
     40 C     c       0.003805     -0.001359      0.005483      0.000000
     41 C     c      -0.003350      0.000125     -0.000107      0.000000
     42 C     c       0.000274      0.001954      0.003400      0.000000
     43 C     c      -0.000660      0.002719     -0.004724      0.000000
     44 C     c      -0.000985      0.003607     -0.001926      0.000000
     45 C     c      -0.000823      0.002147     -0.001902      0.000000
     46 C     c       0.003326     -0.000631     -0.001915      0.000000
     47 C     c       0.000854     -0.002812      0.003729      0.000000
     48 C     c       0.002730     -0.000667     -0.005504      0.000000
     49 C     c      -0.004568      0.002495     -0.000475      0.000000
     50 C     c      -0.000480     -0.001949      0.002969      0.000000
     51 C     c       0.000086      0.001029     -0.000093      0.000000
     52 C     c       0.000689     -0.002615      0.000185      0.000000
     53 C     c       0.003937      0.001952      0.001174      0.000000
     54 C     c       0.002014     -0.000338      0.001309      0.000000
     55 C     c       0.000166     -0.002388      0.001571      0.000000
     56 C     c       0.000548     -0.003142     -0.004634      0.000000
     57 C     c      -0.000477      0.001543      0.001993      0.000000
     58 C     c       0.001186     -0.003469      0.003356      0.000000
     59 C     c       0.003279     -0.000759     -0.000004      0.000000
     60 C     c       0.003023     -0.000156      0.002458      0.000000
     61 C     c       0.003648     -0.001406     -0.001460      0.000000
     62 C     c      -0.001346      0.001900      0.002542      0.000000
     63 C     c      -0.001257     -0.002411      0.002507      0.000000
     64 C     c       0.002201      0.000201      0.001051      0.000000
--------------------------------------------------------------------------------
  Maximum abs         0.008820      0.005224      0.009216      0.000000
--------------------------------------------------------------------------------


  Time to end of optimisation =       0.8952 seconds


  Peak dynamic memory used =       2.01 MB 


  Timing analysis for GULP :

--------------------------------------------------------------------------------
  Task / Subroutine                                          Time (Seconds)
--------------------------------------------------------------------------------
  Calculation of Brenner energy and derivatives                   0.8728
--------------------------------------------------------------------------------
  Total CPU time                                                  0.8953
--------------------------------------------------------------------------------


  CIF file written as opti_1.0200.cif


  Job Finished at 16:20.16 12th August     2020                               

