********************************************************************************
*                       GENERAL UTILITY LATTICE PROGRAM                        *
*                                 Julian Gale                                  *
*                       Curtin Institute for Computation                       *
*                    School of Molecular and Life Sciences                     *
*                    Curtin University, Western Australia                      *
********************************************************************************
* Version = 5.2.0 * Last modified =  17th December 2019                        *
********************************************************************************
*  optimise     - perform optimisation run                                     *
*  conv         - constant volume calculation                                  *
*  isotropic    - only isotropic cell expansion to be allowed                  *
*  conjugate    - use conjugate gradients minimiser                            *
********************************************************************************
* ASE calculation                                                              *
********************************************************************************


  Job Started  at 23:38.24 10th August     2020                               

  Number of CPUs =     1


  Total number of configurations input =      1

********************************************************************************
*  Input for Configuration =   1                                               *
********************************************************************************

  Formula = C64                                                         

  Number of irreducible atoms/shells =      64


  Total number atoms/shells =      64

  Dimensionality = 3               :  Bulk   



  Cartesian lattice vectors (Angstroms) :

        7.659373    0.000000    0.000000
        0.000000    7.659373    0.000000
        0.000000    0.000000    7.659373

  Cell parameters (Angstroms/Degrees):

  a =       7.6594    alpha =  90.0000
  b =       7.6594    beta  =  90.0000
  c =       7.6594    gamma =  90.0000

  Initial cell volume =         449.344736 Angs**3

  Temperature of configuration =   0.00     K 

  Pressure of configuration =         0.000 GPa 

  Fractional coordinates of asymmetric unit :

--------------------------------------------------------------------------------
   No.  Atomic       x           y          z         Charge      Occupancy
        Label      (Frac)      (Frac)     (Frac)        (e)         (Frac)  
--------------------------------------------------------------------------------
      1 C     c    0.025100    0.587150    0.365320     0.00000    1.000000    
      2 C     c    0.261960 *  0.102350 *  0.107880 *   0.00000    1.000000    
      3 C     c    0.100080 *  0.438460 *  0.267700 *   0.00000    1.000000    
      4 C     c    0.878960 *  0.966820 *  0.452800 *   0.00000    1.000000    
      5 C     c    0.476970 *  0.917400 *  0.988740 *   0.00000    1.000000    
      6 C     c    0.786990 *  0.447150 *  0.220140 *   0.00000    1.000000    
      7 C     c    0.923040 *  0.637530 *  0.717050 *   0.00000    1.000000    
      8 C     c    0.810170 *  0.554570 *  0.590270 *   0.00000    1.000000    
      9 C     c    0.131790 *  0.380040 *  0.638710 *   0.00000    1.000000    
     10 C     c    0.404270 *  0.764550 *  0.117610 *   0.00000    1.000000    
     11 C     c    0.889700 *  0.256980 *  0.746610 *   0.00000    1.000000    
     12 C     c    0.569910 *  0.900620 *  0.557400 *   0.00000    1.000000    
     13 C     c    0.425650 *  0.240870 *  0.632440 *   0.00000    1.000000    
     14 C     c    0.200020 *  0.983730 *  0.798590 *   0.00000    1.000000    
     15 C     c    0.523060 *  0.608540 *  0.406760 *   0.00000    1.000000    
     16 C     c    0.987720 *  0.938200 *  0.121300 *   0.00000    1.000000    
     17 C     c    0.134680 *  0.821550 *  0.858210 *   0.00000    1.000000    
     18 C     c    0.347750 *  0.690110 *  0.662490 *   0.00000    1.000000    
     19 C     c    0.738190 *  0.384180 *  0.683430 *   0.00000    1.000000    
     20 C     c    0.046460 *  0.258110 *  0.266300 *   0.00000    1.000000    
     21 C     c    0.936080 *  0.173340 *  0.419850 *   0.00000    1.000000    
     22 C     c    0.843300 *  0.615880 *  0.414960 *   0.00000    1.000000    
     23 C     c    0.478470 *  0.818970 *  0.689890 *   0.00000    1.000000    
     24 C     c    0.794120 *  0.296780 *  0.327440 *   0.00000    1.000000    
     25 C     c    0.669440 *  0.161030 *  0.017330 *   0.00000    1.000000    
     26 C     c    0.520340 *  0.604650 *  0.088350 *   0.00000    1.000000    
     27 C     c    0.606080 *  0.280540 *  0.571440 *   0.00000    1.000000    
     28 C     c    0.633890 *  0.989520 *  0.119020 *   0.00000    1.000000    
     29 C     c    0.479160 *  0.916090 *  0.251290 *   0.00000    1.000000    
     30 C     c    0.339390 *  0.056680 *  0.923070 *   0.00000    1.000000    
     31 C     c    0.810280 *  0.113020 *  0.884120 *   0.00000    1.000000    
     32 C     c    0.867960 *  0.767490 *  0.838100 *   0.00000    1.000000    
     33 C     c    0.307470 *  0.395320 *  0.575810 *   0.00000    1.000000    
     34 C     c    0.226620 *  0.687030 *  0.123410 *   0.00000    1.000000    
     35 C     c    0.071610 *  0.510040 *  0.779400 *   0.00000    1.000000    
     36 C     c    0.326190 *  0.102150 *  0.509580 *   0.00000    1.000000    
     37 C     c    0.121970 *  0.741100 *  0.423810 *   0.00000    1.000000    
     38 C     c    0.542650 *  0.314790 *  0.957100 *   0.00000    1.000000    
     39 C     c    0.063420 *  0.131370 *  0.109250 *   0.00000    1.000000    
     40 C     c    0.769650 *  0.942180 *  0.796810 *   0.00000    1.000000    
     41 C     c    0.392750 *  0.558230 *  0.534200 *   0.00000    1.000000    
     42 C     c    0.068190 *  0.896530 *  0.498720 *   0.00000    1.000000    
     43 C     c    0.001700 *  0.428840 *  0.954850 *   0.00000    1.000000    
     44 C     c    0.238470 *  0.500650 *  0.156150 *   0.00000    1.000000    
     45 C     c    0.195640 *  0.672080 *  0.768160 *   0.00000    1.000000    
     46 C     c    0.892950 *  0.519810 *  0.081840 *   0.00000    1.000000    
     47 C     c    0.799970 *  0.863030 *  0.155410 *   0.00000    1.000000    
     48 C     c    0.985830 *  0.222020 *  0.949250 *   0.00000    1.000000    
     49 C     c    0.775600 *  0.805370 *  0.350130 *   0.00000    1.000000    
     50 C     c    0.821570 *  0.700470 *  0.025360 *   0.00000    1.000000    
     51 C     c    0.158980 *  0.041530 *  0.607950 *   0.00000    1.000000    
     52 C     c    0.476040 *  0.263670 *  0.276630 *   0.00000    1.000000    
     53 C     c    0.434680 *  0.399100 *  0.122780 *   0.00000    1.000000    
     54 C     c    0.365660 *  0.086630 *  0.294640 *   0.00000    1.000000    
     55 C     c    0.624160 *  0.266270 *  0.391700 *   0.00000    1.000000    
     56 C     c    0.422290 *  0.211340 *  0.832230 *   0.00000    1.000000    
     57 C     c    0.643820 *  0.455720 *  0.850330 *   0.00000    1.000000    
     58 C     c    0.737120 *  0.967710 *  0.602660 *   0.00000    1.000000    
     59 C     c    0.099210 *  0.802470 *  0.043610 *   0.00000    1.000000    
     60 C     c    0.617730 *  0.536110 *  0.254430 *   0.00000    1.000000    
     61 C     c    0.572990 *  0.809180 *  0.390000 *   0.00000    1.000000    
     62 C     c    0.027000 *  0.208410 *  0.602340 *   0.00000    1.000000    
     63 C     c    0.640770 *  0.641500 *  0.932270 *   0.00000    1.000000    
     64 C     c    0.588560 *  0.824650 *  0.852350 *   0.00000    1.000000    
--------------------------------------------------------------------------------


  Constraints : 

--------------------------------------------------------------------------------
  Constraint no.      Unconstrained     Constrained    Coefficient    Offset
                         Variable         Variable
--------------------------------------------------------------------------------
           1              Strain 1        Strain 2       1.00000      0.0000
           2              Strain 1        Strain 3       1.00000      0.0000
--------------------------------------------------------------------------------


********************************************************************************
*  General input information                                                   *
********************************************************************************

  Species output for all configurations : 

--------------------------------------------------------------------------------
  Species    Type    Atomic    Atomic    Charge       Radii (Angs)     Library
                     Number     Mass       (e)     Cova   Ionic  VDW   Symbol
--------------------------------------------------------------------------------
    C        Core        6      12.01   0.000000   0.770  0.000  1.530          
--------------------------------------------------------------------------------


  Lattice summation method               =    Ewald          (3-D)
                                         =    Parry          (2-D)
                                         =    Saunders et al (1-D)
  Accuracy factor for lattice sums       =   12.000


  Analytic derivatives to be used

  Time limit = Infinity

  Maximum range for interatomic potentials =    100000.000000 Angstroms

  Brenner et al 2002 potential to be used with explicit splines for P


********************************************************************************
*  Output for configuration   1                                                *
********************************************************************************


  Components of energy : 

--------------------------------------------------------------------------------
  Interatomic potentials     =           0.00000000 eV    
  Brenner potentials         =        -427.87406203 eV    
  Monopole - monopole (real) =           0.00000000 eV    
  Monopole - monopole (recip)=           0.00000000 eV    
  Monopole - monopole (total)=           0.00000000 eV    
--------------------------------------------------------------------------------
  Total lattice energy       =        -427.87406203 eV    
--------------------------------------------------------------------------------
  Total lattice energy       =          -41283.3063 kJ/(mole unit cells)
--------------------------------------------------------------------------------


  Number of variables =      189

  Maximum number of calculations  =          2000
  Maximum Hessian update interval =            10
  Maximum step size               =   1.000000000
  Maximum parameter tolerance     =   0.000010000
  Maximum function  tolerance     =   0.000010000
  Maximum gradient  tolerance     =   0.001000000
  Maximum gradient  component     =   0.010000000

  Symmetry not applied to optimisation

  Conjugate gradient optimiser to be used

  Lower half triangular hessian to be used

  Start of bulk optimisation :

  Cycle:      0 Energy:      -427.874062  Gnorm:      0.180034  CPU:    0.042
  Cycle:      1 Energy:      -427.949452  Gnorm:      0.085284  CPU:    0.072
  Cycle:      2 Energy:      -427.975648  Gnorm:      0.094088  CPU:    0.104
  Cycle:      3 Energy:      -427.997763  Gnorm:      0.085241  CPU:    0.143
  Cycle:      4 Energy:      -428.012265  Gnorm:      0.058123  CPU:    0.160
  Cycle:      5 Energy:      -428.025107  Gnorm:      0.059256  CPU:    0.171
  Cycle:      6 Energy:      -428.034638  Gnorm:      0.056771  CPU:    0.196
  Cycle:      7 Energy:      -428.042514  Gnorm:      0.041790  CPU:    0.229
  Cycle:      8 Energy:      -428.047502  Gnorm:      0.032654  CPU:    0.259
  Cycle:      9 Energy:      -428.050828  Gnorm:      0.029605  CPU:    0.273
  Cycle:     10 Energy:      -428.052027  Gnorm:      0.017518  CPU:    0.284
  Cycle:     11 Energy:      -428.053230  Gnorm:      0.019908  CPU:    0.298
  Cycle:     12 Energy:      -428.054363  Gnorm:      0.022102  CPU:    0.320
  Cycle:     13 Energy:      -428.055816  Gnorm:      0.019103  CPU:    0.330
  Cycle:     14 Energy:      -428.056692  Gnorm:      0.013829  CPU:    0.336
  Cycle:     15 Energy:      -428.057282  Gnorm:      0.015939  CPU:    0.360
  Cycle:     16 Energy:      -428.058023  Gnorm:      0.013654  CPU:    0.370
  Cycle:     17 Energy:      -428.058433  Gnorm:      0.014922  CPU:    0.379
  Cycle:     18 Energy:      -428.058808  Gnorm:      0.010606  CPU:    0.401
  Cycle:     19 Energy:      -428.059163  Gnorm:      0.009822  CPU:    0.411
  Cycle:     20 Energy:      -428.059310  Gnorm:      0.005567  CPU:    0.418
  Cycle:     21 Energy:      -428.059379  Gnorm:      0.007386  CPU:    0.443
  Cycle:     22 Energy:      -428.059516  Gnorm:      0.006669  CPU:    0.469
  Cycle:     23 Energy:      -428.059619  Gnorm:      0.006139  CPU:    0.497
  Cycle:     24 Energy:      -428.059756  Gnorm:      0.008396  CPU:    0.542
  Cycle:     25 Energy:      -428.059890  Gnorm:      0.006982  CPU:    0.584
  Cycle:     26 Energy:      -428.060032  Gnorm:      0.006365  CPU:    0.635
  Cycle:     27 Energy:      -428.060158  Gnorm:      0.006383  CPU:    0.663
  Cycle:     28 Energy:      -428.060235  Gnorm:      0.005543  CPU:    0.681
  Cycle:     29 Energy:      -428.060357  Gnorm:      0.006175  CPU:    0.723
  Cycle:     30 Energy:      -428.060408  Gnorm:      0.003634  CPU:    0.754
  Cycle:     31 Energy:      -428.060449  Gnorm:      0.002960  CPU:    0.782
  Cycle:     32 Energy:      -428.060501  Gnorm:      0.003805  CPU:    0.810
  Cycle:     33 Energy:      -428.060534  Gnorm:      0.002923  CPU:    0.835
  Cycle:     34 Energy:      -428.060580  Gnorm:      0.003571  CPU:    0.846
  Cycle:     35 Energy:      -428.060612  Gnorm:      0.002911  CPU:    0.853
  Cycle:     36 Energy:      -428.060650  Gnorm:      0.003286  CPU:    0.879
  Cycle:     37 Energy:      -428.060686  Gnorm:      0.003436  CPU:    0.887
  Cycle:     38 Energy:      -428.060782  Gnorm:      0.006064  CPU:    0.912
  Cycle:     39 Energy:      -428.060902  Gnorm:      0.006010  CPU:    0.921
  Cycle:     40 Energy:      -428.060975  Gnorm:      0.003332  CPU:    0.927
  Cycle:     41 Energy:      -428.061000  Gnorm:      0.002752  CPU:    0.941
  Cycle:     42 Energy:      -428.061009  Gnorm:      0.001852  CPU:    0.969
  Cycle:     43 Energy:      -428.061019  Gnorm:      0.002111  CPU:    0.983
  Cycle:     44 Energy:      -428.061035  Gnorm:      0.002225  CPU:    0.999
  Cycle:     45 Energy:      -428.061044  Gnorm:      0.002098  CPU:    1.016
  Cycle:     46 Energy:      -428.061060  Gnorm:      0.002175  CPU:    1.025
  Cycle:     47 Energy:      -428.061083  Gnorm:      0.003497  CPU:    1.031
  Cycle:     48 Energy:      -428.061106  Gnorm:      0.002386  CPU:    1.055
  Cycle:     49 Energy:      -428.061117  Gnorm:      0.002186  CPU:    1.064
  Cycle:     50 Energy:      -428.061123  Gnorm:      0.001610  CPU:    1.071
  Cycle:     51 Energy:      -428.061138  Gnorm:      0.002400  CPU:    1.097
  Cycle:     52 Energy:      -428.061150  Gnorm:      0.001839  CPU:    1.105
  Cycle:     53 Energy:      -428.061161  Gnorm:      0.001998  CPU:    1.111
  Cycle:     54 Energy:      -428.061172  Gnorm:      0.002026  CPU:    1.124
  Cycle:     55 Energy:      -428.061185  Gnorm:      0.002008  CPU:    1.143
  Cycle:     56 Energy:      -428.061195  Gnorm:      0.001652  CPU:    1.149
  Cycle:     57 Energy:      -428.061209  Gnorm:      0.002578  CPU:    1.173
  Cycle:     58 Energy:      -428.061228  Gnorm:      0.002757  CPU:    1.183
  Cycle:     59 Energy:      -428.061267  Gnorm:      0.004382  CPU:    1.190
  Cycle:     60 Energy:      -428.061286  Gnorm:      0.001736  CPU:    1.196
  Cycle:     61 Energy:      -428.061294  Gnorm:      0.001940  CPU:    1.221
  Cycle:     62 Energy:      -428.061303  Gnorm:      0.001801  CPU:    1.230
  Cycle:     63 Energy:      -428.061316  Gnorm:      0.001961  CPU:    1.255
  Cycle:     64 Energy:      -428.061323  Gnorm:      0.001666  CPU:    1.270
  Cycle:     65 Energy:      -428.061333  Gnorm:      0.002065  CPU:    1.289
  Cycle:     66 Energy:      -428.061340  Gnorm:      0.001331  CPU:    1.313
  Cycle:     67 Energy:      -428.061343  Gnorm:      0.001255  CPU:    1.338
  Cycle:     68 Energy:      -428.061350  Gnorm:      0.001748  CPU:    1.351
  Cycle:     69 Energy:      -428.061356  Gnorm:      0.001712  CPU:    1.374
  Cycle:     70 Energy:      -428.061362  Gnorm:      0.001376  CPU:    1.383
  Cycle:     71 Energy:      -428.061367  Gnorm:      0.001032  CPU:    1.390
  Cycle:     72 Energy:      -428.061370  Gnorm:      0.001223  CPU:    1.415
  Cycle:     73 Energy:      -428.061375  Gnorm:      0.001491  CPU:    1.425
  Cycle:     74 Energy:      -428.061384  Gnorm:      0.001851  CPU:    1.432
  Cycle:     75 Energy:      -428.061395  Gnorm:      0.001709  CPU:    1.456
  Cycle:     76 Energy:      -428.061406  Gnorm:      0.002064  CPU:    1.466
  Cycle:     77 Energy:      -428.061424  Gnorm:      0.001966  CPU:    1.492
  Cycle:     78 Energy:      -428.061439  Gnorm:      0.002275  CPU:    1.499
  Cycle:     79 Energy:      -428.061453  Gnorm:      0.003014  CPU:    1.518
  Cycle:     80 Energy:      -428.061465  Gnorm:      0.002170  CPU:    1.530
  Cycle:     81 Energy:      -428.061481  Gnorm:      0.001946  CPU:    1.578
  Cycle:     82 Energy:      -428.061496  Gnorm:      0.001759  CPU:    1.624
  Cycle:     83 Energy:      -428.061503  Gnorm:      0.001450  CPU:    1.640
  Cycle:     84 Energy:      -428.061511  Gnorm:      0.001522  CPU:    1.673
  Cycle:     85 Energy:      -428.061516  Gnorm:      0.001130  CPU:    1.698
  Cycle:     86 Energy:      -428.061519  Gnorm:      0.000869  CPU:    1.731
  Cycle:     87 Energy:      -428.061520  Gnorm:      0.001025  CPU:    1.759
  Cycle:     88 Energy:      -428.061521  Gnorm:      0.001170  CPU:    1.778
  Cycle:     89 Energy:      -428.061523  Gnorm:      0.000551  CPU:    1.799
  Cycle:     90 Energy:      -428.061523  Gnorm:      0.000457  CPU:    1.808
  Cycle:     91 Energy:      -428.061524  Gnorm:      0.000426  CPU:    1.816
  Cycle:     92 Energy:      -428.061524  Gnorm:      0.000415  CPU:    1.822
  Cycle:     93 Energy:      -428.061529  Gnorm:      0.000947  CPU:    1.847
  Cycle:     94 Energy:      -428.061537  Gnorm:      0.001537  CPU:    1.860
  Cycle:     95 Energy:      -428.061542  Gnorm:      0.001549  CPU:    1.867
  Cycle:     96 Energy:      -428.061545  Gnorm:      0.001032  CPU:    1.872
  Cycle:     97 Energy:      -428.061549  Gnorm:      0.000864  CPU:    1.898
  Cycle:     98 Energy:      -428.061551  Gnorm:      0.000884  CPU:    1.907
  Cycle:     99 Energy:      -428.061553  Gnorm:      0.000945  CPU:    1.913
  Cycle:    100 Energy:      -428.061554  Gnorm:      0.000770  CPU:    1.918
  Cycle:    101 Energy:      -428.061556  Gnorm:      0.000893  CPU:    1.945
  Cycle:    102 Energy:      -428.061558  Gnorm:      0.000526  CPU:    1.952
  Cycle:    103 Energy:      -428.061559  Gnorm:      0.000387  CPU:    1.958
  Cycle:    104 Energy:      -428.061559  Gnorm:      0.000373  CPU:    1.979
  Cycle:    105 Energy:      -428.061560  Gnorm:      0.000887  CPU:    1.993
  Cycle:    106 Energy:      -428.061562  Gnorm:      0.001103  CPU:    2.000
  Cycle:    107 Energy:      -428.061564  Gnorm:      0.000852  CPU:    2.025
  Cycle:    108 Energy:      -428.061566  Gnorm:      0.001011  CPU:    2.033
  Cycle:    109 Energy:      -428.061568  Gnorm:      0.001137  CPU:    2.056
  Cycle:    110 Energy:      -428.061569  Gnorm:      0.000669  CPU:    2.084
  Cycle:    111 Energy:      -428.061570  Gnorm:      0.000408  CPU:    2.108
  Cycle:    112 Energy:      -428.061570  Gnorm:      0.000326  CPU:    2.135
  Cycle:    113 Energy:      -428.061570  Gnorm:      0.000308  CPU:    2.151
  Cycle:    114 Energy:      -428.061570  Gnorm:      0.000306  CPU:    2.170
  Cycle:    115 Energy:      -428.061570  Gnorm:      0.000306  CPU:    2.195
  Cycle:    116 Energy:      -428.061574  Gnorm:      0.001249  CPU:    2.229
  Cycle:    117 Energy:      -428.061590  Gnorm:      0.001812  CPU:    2.239
  Cycle:    118 Energy:      -428.061594  Gnorm:      0.000969  CPU:    2.270
  Cycle:    119 Energy:      -428.061595  Gnorm:      0.000539  CPU:    2.277
  Cycle:    120 Energy:      -428.061596  Gnorm:      0.000346  CPU:    2.282
  Cycle:    121 Energy:      -428.061596  Gnorm:      0.000337  CPU:    2.305
  Cycle:    122 Energy:      -428.061598  Gnorm:      0.000548  CPU:    2.318
  Cycle:    123 Energy:      -428.061601  Gnorm:      0.001087  CPU:    2.325
  Cycle:    124 Energy:      -428.061605  Gnorm:      0.001436  CPU:    2.350
  Cycle:    125 Energy:      -428.061608  Gnorm:      0.000677  CPU:    2.359
  Cycle:    126 Energy:      -428.061609  Gnorm:      0.000555  CPU:    2.364
  Cycle:    127 Energy:      -428.061610  Gnorm:      0.000403  CPU:    2.389
  Cycle:    128 Energy:      -428.061611  Gnorm:      0.000332  CPU:    2.397
  Cycle:    129 Energy:      -428.061611  Gnorm:      0.000277  CPU:    2.403
  Cycle:    130 Energy:      -428.061611  Gnorm:      0.000259  CPU:    2.427
  Cycle:    131 Energy:      -428.061612  Gnorm:      0.000691  CPU:    2.440
  Cycle:    132 Energy:      -428.061615  Gnorm:      0.001436  CPU:    2.454
  Cycle:    133 Energy:      -428.061618  Gnorm:      0.000656  CPU:    2.472
  Cycle:    134 Energy:      -428.061618  Gnorm:      0.000412  CPU:    2.479
  Cycle:    135 Energy:      -428.061619  Gnorm:      0.000300  CPU:    2.490


  **** Optimisation achieved ****


  Final energy =    -428.06161895 eV
  Final Gnorm  =       0.00026012

  Components of energy : 

--------------------------------------------------------------------------------
  Interatomic potentials     =           0.00000000 eV    
  Brenner potentials         =        -428.06161895 eV    
  Monopole - monopole (real) =           0.00000000 eV    
  Monopole - monopole (recip)=           0.00000000 eV    
  Monopole - monopole (total)=           0.00000000 eV    
--------------------------------------------------------------------------------
  Total lattice energy       =        -428.06161895 eV    
--------------------------------------------------------------------------------
  Total lattice energy       =          -41301.4027 kJ/(mole unit cells)
--------------------------------------------------------------------------------

  Final fractional coordinates of atoms :

--------------------------------------------------------------------------------
   No.  Atomic        x           y          z          Radius
        Label       (Frac)      (Frac)     (Frac)       (Angs) 
--------------------------------------------------------------------------------
     1  C     c     0.025100    0.587150    0.365320    0.000000
     2  C     c     0.260339    0.101737    0.106295    0.000000
     3  C     c     0.099904    0.439735    0.266884    0.000000
     4  C     c     0.879183    0.967225    0.452556    0.000000
     5  C     c     0.478135    0.915238    0.989029    0.000000
     6  C     c     0.785548    0.448525    0.221774    0.000000
     7  C     c     0.918592    0.633019    0.717801    0.000000
     8  C     c     0.810406    0.550264    0.588940    0.000000
     9  C     c     0.132847    0.380317    0.639937    0.000000
    10  C     c     0.406107    0.763012    0.117148    0.000000
    11  C     c     0.887922    0.253285    0.745622    0.000000
    12  C     c     0.572951    0.894273    0.556711    0.000000
    13  C     c     0.425217    0.240507    0.631659    0.000000
    14  C     c     0.203075    0.981398    0.797243    0.000000
    15  C     c     0.521266    0.607133    0.405653    0.000000
    16  C     c     0.989195    0.936744    0.118633    0.000000
    17  C     c     0.139817    0.819960    0.858172    0.000000
    18  C     c     0.350391    0.687481    0.663367    0.000000
    19  C     c     0.737056    0.381481    0.682882    0.000000
    20  C     c     0.042791    0.260581    0.264264    0.000000
    21  C     c     0.936016    0.174946    0.420012    0.000000
    22  C     c     0.844002    0.613841    0.415184    0.000000
    23  C     c     0.481597    0.814386    0.688810    0.000000
    24  C     c     0.794156    0.299303    0.329104    0.000000
    25  C     c     0.667907    0.156932    0.013926    0.000000
    26  C     c     0.520466    0.603367    0.088377    0.000000
    27  C     c     0.604830    0.280268    0.570552    0.000000
    28  C     c     0.635764    0.986400    0.117287    0.000000
    29  C     c     0.481549    0.915226    0.248943    0.000000
    30  C     c     0.340464    0.054995    0.922948    0.000000
    31  C     c     0.808668    0.109688    0.881573    0.000000
    32  C     c     0.861030    0.761825    0.836955    0.000000
    33  C     c     0.307780    0.395214    0.577832    0.000000
    34  C     c     0.228937    0.686884    0.123432    0.000000
    35  C     c     0.071160    0.511970    0.778636    0.000000
    36  C     c     0.325627    0.103229    0.507837    0.000000
    37  C     c     0.118026    0.742132    0.424062    0.000000
    38  C     c     0.542666    0.313143    0.956274    0.000000
    39  C     c     0.061662    0.132670    0.107584    0.000000
    40  C     c     0.768613    0.938821    0.795474    0.000000
    41  C     c     0.393024    0.556809    0.534686    0.000000
    42  C     c     0.067513    0.897668    0.497595    0.000000
    43  C     c     0.997356    0.428876    0.953911    0.000000
    44  C     c     0.240221    0.501358    0.158372    0.000000
    45  C     c     0.199280    0.670146    0.769356    0.000000
    46  C     c     0.889357    0.518337    0.081370    0.000000
    47  C     c     0.802383    0.860287    0.153295    0.000000
    48  C     c     0.981594    0.222551    0.947451    0.000000
    49  C     c     0.776407    0.804077    0.348804    0.000000
    50  C     c     0.819109    0.698049    0.025023    0.000000
    51  C     c     0.159335    0.041336    0.606940    0.000000
    52  C     c     0.478349    0.263112    0.275783    0.000000
    53  C     c     0.435056    0.400267    0.123187    0.000000
    54  C     c     0.367925    0.086270    0.290585    0.000000
    55  C     c     0.624432    0.267079    0.391952    0.000000
    56  C     c     0.423124    0.208945    0.831561    0.000000
    57  C     c     0.643676    0.453529    0.849840    0.000000
    58  C     c     0.738077    0.962310    0.601845    0.000000
    59  C     c     0.103251    0.802713    0.042749    0.000000
    60  C     c     0.616099    0.535374    0.253991    0.000000
    61  C     c     0.573989    0.806709    0.388044    0.000000
    62  C     c     0.027096    0.210124    0.603226    0.000000
    63  C     c     0.639423    0.638576    0.932351    0.000000
    64  C     c     0.588410    0.821930    0.852290    0.000000
--------------------------------------------------------------------------------

  Final internal derivatives :

--------------------------------------------------------------------------------
   No.  Atomic          a             b             c           Radius
        Label          (eV)          (eV)          (eV)        (eV/Angs)
--------------------------------------------------------------------------------
      1 C     c       0.000000      0.000000      0.000000      0.000000
      2 C     c       0.000601      0.006288     -0.001115      0.000000
      3 C     c       0.003865      0.001508     -0.000955      0.000000
      4 C     c       0.001714      0.004482      0.002316      0.000000
      5 C     c       0.003030      0.005909      0.004334      0.000000
      6 C     c       0.003042      0.004761      0.002234      0.000000
      7 C     c       0.001221      0.004424      0.003610      0.000000
      8 C     c       0.002136      0.007204      0.002933      0.000000
      9 C     c       0.000040      0.001958      0.002623      0.000000
     10 C     c       0.001045      0.002898      0.002443      0.000000
     11 C     c       0.002221      0.000458      0.001371      0.000000
     12 C     c       0.002139      0.005601      0.001900      0.000000
     13 C     c       0.001250      0.005903      0.000651      0.000000
     14 C     c       0.000941      0.006122      0.003310      0.000000
     15 C     c       0.004026      0.005982      0.002671      0.000000
     16 C     c       0.002893      0.002568      0.002338      0.000000
     17 C     c       0.001640      0.004928      0.002389      0.000000
     18 C     c       0.001768      0.005071      0.004119      0.000000
     19 C     c      -0.000678      0.009418      0.000744      0.000000
     20 C     c       0.000290      0.000272     -0.001509      0.000000
     21 C     c       0.001703      0.003488      0.002100      0.000000
     22 C     c       0.004309      0.002489      0.003653      0.000000
     23 C     c       0.002611      0.003812      0.002543      0.000000
     24 C     c       0.002138      0.003785      0.000984      0.000000
     25 C     c       0.001356      0.005849      0.004522      0.000000
     26 C     c       0.001426      0.006052      0.001094      0.000000
     27 C     c       0.001349      0.002984      0.001204      0.000000
     28 C     c       0.006120      0.005231      0.004127      0.000000
     29 C     c       0.002730      0.005846      0.003966      0.000000
     30 C     c       0.001108      0.003575      0.003592      0.000000
     31 C     c       0.002279      0.006447     -0.000190      0.000000
     32 C     c       0.003694      0.005881      0.001955      0.000000
     33 C     c       0.000573      0.002358      0.002574      0.000000
     34 C     c       0.000215      0.004558      0.003903      0.000000
     35 C     c       0.000830      0.002603      0.001779      0.000000
     36 C     c       0.002162      0.006303      0.005197      0.000000
     37 C     c       0.000938      0.000648      0.002740      0.000000
     38 C     c       0.003675      0.004343      0.003968      0.000000
     39 C     c       0.001303      0.003057      0.005458      0.000000
     40 C     c       0.002287      0.005519      0.000108      0.000000
     41 C     c       0.002729      0.003919      0.003565      0.000000
     42 C     c       0.002779      0.003465     -0.000685      0.000000
     43 C     c       0.000567      0.003558      0.004646      0.000000
     44 C     c      -0.001194      0.008661      0.003746      0.000000
     45 C     c       0.000560      0.003969      0.002379      0.000000
     46 C     c       0.003760      0.002109      0.003449      0.000000
     47 C     c      -0.001844      0.007742      0.000860      0.000000
     48 C     c       0.004954      0.004553      0.005501      0.000000
     49 C     c       0.002535      0.005170      0.002756      0.000000
     50 C     c       0.003654      0.001234      0.001067      0.000000
     51 C     c       0.002607      0.002375      0.001217      0.000000
     52 C     c       0.005197      0.005987      0.004495      0.000000
     53 C     c      -0.001162      0.000833     -0.000987      0.000000
     54 C     c       0.001834      0.002382      0.002626      0.000000
     55 C     c       0.004305      0.005635      0.002344      0.000000
     56 C     c       0.001966      0.006292      0.003110      0.000000
     57 C     c       0.002297      0.004429      0.004098      0.000000
     58 C     c       0.003183      0.005195      0.000631      0.000000
     59 C     c       0.002108      0.004692      0.002405      0.000000
     60 C     c       0.003078      0.005499      0.003206      0.000000
     61 C     c       0.001345      0.005737      0.002485      0.000000
     62 C     c       0.000012      0.006350      0.003782      0.000000
     63 C     c       0.001347      0.003553      0.004252      0.000000
     64 C     c       0.001151      0.005652      0.001226      0.000000
--------------------------------------------------------------------------------
  Maximum abs         0.006120      0.009418      0.005501      0.000000
--------------------------------------------------------------------------------


  Time to end of optimisation =       2.5110 seconds


  Peak dynamic memory used =       1.98 MB 


  Timing analysis for GULP :

--------------------------------------------------------------------------------
  Task / Subroutine                                          Time (Seconds)
--------------------------------------------------------------------------------
  Calculation of Brenner energy and derivatives                   2.4476
  Calculation of matrix inversion                                 0.0001
--------------------------------------------------------------------------------
  Total CPU time                                                  2.5111
--------------------------------------------------------------------------------


  CIF file written as opti_1.0200.cif


  Job Finished at 23:38.27 10th August     2020                               

