********************************************************************************
*                       GENERAL UTILITY LATTICE PROGRAM                        *
*                                 Julian Gale                                  *
*                       Curtin Institute for Computation                       *
*                    School of Molecular and Life Sciences                     *
*                    Curtin University, Western Australia                      *
********************************************************************************
* Version = 5.2.0 * Last modified =  17th December 2019                        *
********************************************************************************
*  optimise     - perform optimisation run                                     *
*  conv         - constant volume calculation                                  *
*  isotropic    - only isotropic cell expansion to be allowed                  *
*  conjugate    - use conjugate gradients minimiser                            *
********************************************************************************
* ASE calculation                                                              *
********************************************************************************


  Job Started  at 16:48.32 11th August     2020                               

  Number of CPUs =     1


  Total number of configurations input =      1

********************************************************************************
*  Input for Configuration =   1                                               *
********************************************************************************

  Formula = C64                                                         

  Number of irreducible atoms/shells =      64


  Total number atoms/shells =      64

  Dimensionality = 3               :  Bulk   



  Cartesian lattice vectors (Angstroms) :

        7.659272    0.000000    0.000000
        0.000000    7.659272    0.000000
        0.000000    0.000000    7.659272

  Cell parameters (Angstroms/Degrees):

  a =       7.6593    alpha =  90.0000
  b =       7.6593    beta  =  90.0000
  c =       7.6593    gamma =  90.0000

  Initial cell volume =         449.326961 Angs**3

  Temperature of configuration =   0.00     K 

  Pressure of configuration =         0.000 GPa 

  Fractional coordinates of asymmetric unit :

--------------------------------------------------------------------------------
   No.  Atomic       x           y          z         Charge      Occupancy
        Label      (Frac)      (Frac)     (Frac)        (e)         (Frac)  
--------------------------------------------------------------------------------
      1 C     c    0.025100    0.587150    0.365320     0.00000    1.000000    
      2 C     c    0.261960 *  0.102350 *  0.107880 *   0.00000    1.000000    
      3 C     c    0.100080 *  0.438460 *  0.267700 *   0.00000    1.000000    
      4 C     c    0.878960 *  0.966820 *  0.452800 *   0.00000    1.000000    
      5 C     c    0.476970 *  0.917400 *  0.988740 *   0.00000    1.000000    
      6 C     c    0.786990 *  0.447150 *  0.220140 *   0.00000    1.000000    
      7 C     c    0.923040 *  0.637520 *  0.717050 *   0.00000    1.000000    
      8 C     c    0.810170 *  0.554560 *  0.590260 *   0.00000    1.000000    
      9 C     c    0.131790 *  0.380040 *  0.638710 *   0.00000    1.000000    
     10 C     c    0.404270 *  0.764550 *  0.117610 *   0.00000    1.000000    
     11 C     c    0.889700 *  0.256980 *  0.746610 *   0.00000    1.000000    
     12 C     c    0.569910 *  0.900620 *  0.557400 *   0.00000    1.000000    
     13 C     c    0.425650 *  0.240870 *  0.632440 *   0.00000    1.000000    
     14 C     c    0.200020 *  0.983730 *  0.798590 *   0.00000    1.000000    
     15 C     c    0.523060 *  0.608540 *  0.406760 *   0.00000    1.000000    
     16 C     c    0.987720 *  0.938200 *  0.121300 *   0.00000    1.000000    
     17 C     c    0.134680 *  0.821550 *  0.858210 *   0.00000    1.000000    
     18 C     c    0.347750 *  0.690110 *  0.662490 *   0.00000    1.000000    
     19 C     c    0.738190 *  0.384180 *  0.683430 *   0.00000    1.000000    
     20 C     c    0.046450 *  0.258110 *  0.266300 *   0.00000    1.000000    
     21 C     c    0.936080 *  0.173340 *  0.419850 *   0.00000    1.000000    
     22 C     c    0.843300 *  0.615880 *  0.414970 *   0.00000    1.000000    
     23 C     c    0.478470 *  0.818970 *  0.689890 *   0.00000    1.000000    
     24 C     c    0.794120 *  0.296780 *  0.327440 *   0.00000    1.000000    
     25 C     c    0.669440 *  0.161030 *  0.017330 *   0.00000    1.000000    
     26 C     c    0.520340 *  0.604650 *  0.088340 *   0.00000    1.000000    
     27 C     c    0.606080 *  0.280540 *  0.571440 *   0.00000    1.000000    
     28 C     c    0.633890 *  0.989520 *  0.119020 *   0.00000    1.000000    
     29 C     c    0.479160 *  0.916090 *  0.251290 *   0.00000    1.000000    
     30 C     c    0.339390 *  0.056680 *  0.923070 *   0.00000    1.000000    
     31 C     c    0.810280 *  0.113020 *  0.884120 *   0.00000    1.000000    
     32 C     c    0.867950 *  0.767490 *  0.838090 *   0.00000    1.000000    
     33 C     c    0.307470 *  0.395320 *  0.575810 *   0.00000    1.000000    
     34 C     c    0.226620 *  0.687030 *  0.123410 *   0.00000    1.000000    
     35 C     c    0.071610 *  0.510040 *  0.779400 *   0.00000    1.000000    
     36 C     c    0.326190 *  0.102150 *  0.509580 *   0.00000    1.000000    
     37 C     c    0.121970 *  0.741100 *  0.423810 *   0.00000    1.000000    
     38 C     c    0.542650 *  0.314790 *  0.957100 *   0.00000    1.000000    
     39 C     c    0.063420 *  0.131370 *  0.109250 *   0.00000    1.000000    
     40 C     c    0.769650 *  0.942180 *  0.796810 *   0.00000    1.000000    
     41 C     c    0.392750 *  0.558230 *  0.534200 *   0.00000    1.000000    
     42 C     c    0.068180 *  0.896530 *  0.498720 *   0.00000    1.000000    
     43 C     c    0.001700 *  0.428840 *  0.954850 *   0.00000    1.000000    
     44 C     c    0.238470 *  0.500650 *  0.156150 *   0.00000    1.000000    
     45 C     c    0.195650 *  0.672080 *  0.768160 *   0.00000    1.000000    
     46 C     c    0.892950 *  0.519810 *  0.081840 *   0.00000    1.000000    
     47 C     c    0.799980 *  0.863030 *  0.155410 *   0.00000    1.000000    
     48 C     c    0.985830 *  0.222010 *  0.949250 *   0.00000    1.000000    
     49 C     c    0.775600 *  0.805360 *  0.350140 *   0.00000    1.000000    
     50 C     c    0.821570 *  0.700470 *  0.025360 *   0.00000    1.000000    
     51 C     c    0.158980 *  0.041530 *  0.607950 *   0.00000    1.000000    
     52 C     c    0.476040 *  0.263670 *  0.276630 *   0.00000    1.000000    
     53 C     c    0.434680 *  0.399100 *  0.122780 *   0.00000    1.000000    
     54 C     c    0.365660 *  0.086630 *  0.294640 *   0.00000    1.000000    
     55 C     c    0.624160 *  0.266270 *  0.391710 *   0.00000    1.000000    
     56 C     c    0.422290 *  0.211340 *  0.832230 *   0.00000    1.000000    
     57 C     c    0.643820 *  0.455720 *  0.850330 *   0.00000    1.000000    
     58 C     c    0.737120 *  0.967710 *  0.602660 *   0.00000    1.000000    
     59 C     c    0.099210 *  0.802470 *  0.043610 *   0.00000    1.000000    
     60 C     c    0.617730 *  0.536110 *  0.254430 *   0.00000    1.000000    
     61 C     c    0.572990 *  0.809180 *  0.390000 *   0.00000    1.000000    
     62 C     c    0.027000 *  0.208410 *  0.602340 *   0.00000    1.000000    
     63 C     c    0.640770 *  0.641500 *  0.932270 *   0.00000    1.000000    
     64 C     c    0.588560 *  0.824650 *  0.852350 *   0.00000    1.000000    
--------------------------------------------------------------------------------


  Constraints : 

--------------------------------------------------------------------------------
  Constraint no.      Unconstrained     Constrained    Coefficient    Offset
                         Variable         Variable
--------------------------------------------------------------------------------
           1              Strain 1        Strain 2       1.00000      0.0000
           2              Strain 1        Strain 3       1.00000      0.0000
--------------------------------------------------------------------------------


********************************************************************************
*  General input information                                                   *
********************************************************************************

  Species output for all configurations : 

--------------------------------------------------------------------------------
  Species    Type    Atomic    Atomic    Charge       Radii (Angs)     Library
                     Number     Mass       (e)     Cova   Ionic  VDW   Symbol
--------------------------------------------------------------------------------
    C        Core        6      12.01   0.000000   0.770  0.000  1.530          
--------------------------------------------------------------------------------


  Lattice summation method               =    Ewald          (3-D)
                                         =    Parry          (2-D)
                                         =    Saunders et al (1-D)
  Accuracy factor for lattice sums       =   12.000


  Analytic derivatives to be used

  Time limit = Infinity

  Maximum range for interatomic potentials =    100000.000000 Angstroms

  Brenner et al 2002 potential to be used with explicit splines for P


********************************************************************************
*  Output for configuration   1                                                *
********************************************************************************


  Components of energy : 

--------------------------------------------------------------------------------
  Interatomic potentials     =           0.00000000 eV    
  Brenner potentials         =        -427.87545832 eV    
  Monopole - monopole (real) =           0.00000000 eV    
  Monopole - monopole (recip)=           0.00000000 eV    
  Monopole - monopole (total)=           0.00000000 eV    
--------------------------------------------------------------------------------
  Total lattice energy       =        -427.87545832 eV    
--------------------------------------------------------------------------------
  Total lattice energy       =          -41283.4411 kJ/(mole unit cells)
--------------------------------------------------------------------------------


  Number of variables =      189

  Maximum number of calculations  =          2000
  Maximum Hessian update interval =            10
  Maximum step size               =   1.000000000
  Maximum parameter tolerance     =   0.000010000
  Maximum function  tolerance     =   0.000010000
  Maximum gradient  tolerance     =   0.001000000
  Maximum gradient  component     =   0.010000000

  Symmetry not applied to optimisation

  Conjugate gradient optimiser to be used

  Lower half triangular hessian to be used

  Start of bulk optimisation :

  Cycle:      0 Energy:      -427.875458  Gnorm:      0.179913  CPU:    0.025
  Cycle:      1 Energy:      -427.950696  Gnorm:      0.085089  CPU:    0.052
  Cycle:      2 Energy:      -427.976896  Gnorm:      0.093941  CPU:    0.079
  Cycle:      3 Energy:      -427.998986  Gnorm:      0.084893  CPU:    0.099
  Cycle:      4 Energy:      -428.013400  Gnorm:      0.057778  CPU:    0.113
  Cycle:      5 Energy:      -428.026138  Gnorm:      0.059238  CPU:    0.140
  Cycle:      6 Energy:      -428.035595  Gnorm:      0.056431  CPU:    0.165
  Cycle:      7 Energy:      -428.043452  Gnorm:      0.041358  CPU:    0.175
  Cycle:      8 Energy:      -428.048541  Gnorm:      0.032989  CPU:    0.202
  Cycle:      9 Energy:      -428.051879  Gnorm:      0.029779  CPU:    0.227
  Cycle:     10 Energy:      -428.053109  Gnorm:      0.017651  CPU:    0.247
  Cycle:     11 Energy:      -428.054283  Gnorm:      0.019368  CPU:    0.269
  Cycle:     12 Energy:      -428.055343  Gnorm:      0.021178  CPU:    0.302
  Cycle:     13 Energy:      -428.056765  Gnorm:      0.019133  CPU:    0.327
  Cycle:     14 Energy:      -428.057631  Gnorm:      0.013956  CPU:    0.351
  Cycle:     15 Energy:      -428.058201  Gnorm:      0.015910  CPU:    0.367
  Cycle:     16 Energy:      -428.058968  Gnorm:      0.013458  CPU:    0.391
  Cycle:     17 Energy:      -428.059401  Gnorm:      0.014437  CPU:    0.417
  Cycle:     18 Energy:      -428.059790  Gnorm:      0.010934  CPU:    0.445
  Cycle:     19 Energy:      -428.060150  Gnorm:      0.009981  CPU:    0.453
  Cycle:     20 Energy:      -428.060300  Gnorm:      0.005510  CPU:    0.477
  Cycle:     21 Energy:      -428.060383  Gnorm:      0.007657  CPU:    0.503
  Cycle:     22 Energy:      -428.060507  Gnorm:      0.006171  CPU:    0.515
  Cycle:     23 Energy:      -428.060602  Gnorm:      0.005937  CPU:    0.539
  Cycle:     24 Energy:      -428.060769  Gnorm:      0.006670  CPU:    0.549
  Cycle:     25 Energy:      -428.060874  Gnorm:      0.006081  CPU:    0.580
  Cycle:     26 Energy:      -428.061008  Gnorm:      0.006463  CPU:    0.603
  Cycle:     27 Energy:      -428.061095  Gnorm:      0.005948  CPU:    0.626
  Cycle:     28 Energy:      -428.061172  Gnorm:      0.005933  CPU:    0.654
  Cycle:     29 Energy:      -428.061286  Gnorm:      0.005887  CPU:    0.672
  Cycle:     30 Energy:      -428.061340  Gnorm:      0.003948  CPU:    0.688
  Cycle:     31 Energy:      -428.061369  Gnorm:      0.002608  CPU:    0.702
  Cycle:     32 Energy:      -428.061396  Gnorm:      0.003839  CPU:    0.723
  Cycle:     33 Energy:      -428.061448  Gnorm:      0.002901  CPU:    0.730
  Cycle:     34 Energy:      -428.061492  Gnorm:      0.003586  CPU:    0.768
  Cycle:     35 Energy:      -428.061519  Gnorm:      0.003235  CPU:    0.777
  Cycle:     36 Energy:      -428.061549  Gnorm:      0.003438  CPU:    0.801
  Cycle:     37 Energy:      -428.061582  Gnorm:      0.003460  CPU:    0.810
  Cycle:     38 Energy:      -428.061626  Gnorm:      0.004643  CPU:    0.835
  Cycle:     39 Energy:      -428.061715  Gnorm:      0.005416  CPU:    0.846
  Cycle:     40 Energy:      -428.061771  Gnorm:      0.003725  CPU:    0.870
  Cycle:     41 Energy:      -428.061793  Gnorm:      0.001947  CPU:    0.878
  Cycle:     42 Energy:      -428.061805  Gnorm:      0.002115  CPU:    0.901
  Cycle:     43 Energy:      -428.061814  Gnorm:      0.001892  CPU:    0.928
  Cycle:     44 Energy:      -428.061829  Gnorm:      0.002375  CPU:    0.938
  Cycle:     45 Energy:      -428.061854  Gnorm:      0.002375  CPU:    0.961
  Cycle:     46 Energy:      -428.061906  Gnorm:      0.005148  CPU:    0.970
  Cycle:     47 Energy:      -428.061974  Gnorm:      0.003719  CPU:    0.985
  Cycle:     48 Energy:      -428.062003  Gnorm:      0.002972  CPU:    1.002
  Cycle:     49 Energy:      -428.062027  Gnorm:      0.003365  CPU:    1.015
  Cycle:     50 Energy:      -428.062042  Gnorm:      0.002241  CPU:    1.036
  Cycle:     51 Energy:      -428.062054  Gnorm:      0.002043  CPU:    1.046
  Cycle:     52 Energy:      -428.062087  Gnorm:      0.003045  CPU:    1.071
  Cycle:     53 Energy:      -428.062107  Gnorm:      0.001658  CPU:    1.079
  Cycle:     54 Energy:      -428.062114  Gnorm:      0.001553  CPU:    1.103
  Cycle:     55 Energy:      -428.062121  Gnorm:      0.001421  CPU:    1.111
  Cycle:     56 Energy:      -428.062130  Gnorm:      0.001981  CPU:    1.132
  Cycle:     57 Energy:      -428.062140  Gnorm:      0.002153  CPU:    1.143
  Cycle:     58 Energy:      -428.062163  Gnorm:      0.003394  CPU:    1.170
  Cycle:     59 Energy:      -428.062198  Gnorm:      0.003519  CPU:    1.180
  Cycle:     60 Energy:      -428.062223  Gnorm:      0.002511  CPU:    1.204
  Cycle:     61 Energy:      -428.062233  Gnorm:      0.001514  CPU:    1.212
  Cycle:     62 Energy:      -428.062239  Gnorm:      0.001547  CPU:    1.241
  Cycle:     63 Energy:      -428.062243  Gnorm:      0.001423  CPU:    1.267
  Cycle:     64 Energy:      -428.062252  Gnorm:      0.001440  CPU:    1.278
  Cycle:     65 Energy:      -428.062258  Gnorm:      0.001656  CPU:    1.302
  Cycle:     66 Energy:      -428.062266  Gnorm:      0.002021  CPU:    1.313
  Cycle:     67 Energy:      -428.062276  Gnorm:      0.001909  CPU:    1.337
  Cycle:     68 Energy:      -428.062284  Gnorm:      0.001784  CPU:    1.362
  Cycle:     69 Energy:      -428.062295  Gnorm:      0.001955  CPU:    1.390
  Cycle:     70 Energy:      -428.062300  Gnorm:      0.001151  CPU:    1.409
  Cycle:     71 Energy:      -428.062304  Gnorm:      0.001101  CPU:    1.425
  Cycle:     72 Energy:      -428.062308  Gnorm:      0.001509  CPU:    1.450
  Cycle:     73 Energy:      -428.062314  Gnorm:      0.001403  CPU:    1.461
  Cycle:     74 Energy:      -428.062321  Gnorm:      0.001425  CPU:    1.485
  Cycle:     75 Energy:      -428.062327  Gnorm:      0.001237  CPU:    1.504
  Cycle:     76 Energy:      -428.062333  Gnorm:      0.001650  CPU:    1.520
  Cycle:     77 Energy:      -428.062345  Gnorm:      0.002014  CPU:    1.545
  Cycle:     78 Energy:      -428.062359  Gnorm:      0.002467  CPU:    1.554
  Cycle:     79 Energy:      -428.062379  Gnorm:      0.002685  CPU:    1.577
  Cycle:     80 Energy:      -428.062391  Gnorm:      0.001763  CPU:    1.589
  Cycle:     81 Energy:      -428.062398  Gnorm:      0.001321  CPU:    1.601
  Cycle:     82 Energy:      -428.062401  Gnorm:      0.001025  CPU:    1.621
  Cycle:     83 Energy:      -428.062405  Gnorm:      0.001200  CPU:    1.640
  Cycle:     84 Energy:      -428.062408  Gnorm:      0.001274  CPU:    1.655
  Cycle:     85 Energy:      -428.062414  Gnorm:      0.001153  CPU:    1.679
  Cycle:     86 Energy:      -428.062420  Gnorm:      0.001698  CPU:    1.692
  Cycle:     87 Energy:      -428.062427  Gnorm:      0.001266  CPU:    1.714
  Cycle:     88 Energy:      -428.062430  Gnorm:      0.001031  CPU:    1.724
  Cycle:     89 Energy:      -428.062433  Gnorm:      0.000812  CPU:    1.745
  Cycle:     90 Energy:      -428.062436  Gnorm:      0.001296  CPU:    1.760
  Cycle:     91 Energy:      -428.062437  Gnorm:      0.001533  CPU:    1.784
  Cycle:     92 Energy:      -428.062441  Gnorm:      0.000636  CPU:    1.792
  Cycle:     93 Energy:      -428.062442  Gnorm:      0.000489  CPU:    1.815
  Cycle:     94 Energy:      -428.062442  Gnorm:      0.000443  CPU:    1.824
  Cycle:     95 Energy:      -428.062443  Gnorm:      0.000426  CPU:    1.835
  Cycle:     96 Energy:      -428.062443  Gnorm:      0.000413  CPU:    1.855
  Cycle:     97 Energy:      -428.062443  Gnorm:      0.000411  CPU:    1.874
  Cycle:     98 Energy:      -428.062443  Gnorm:      0.000411  CPU:    1.888
  Cycle:     99 Energy:      -428.062460  Gnorm:      0.000670  CPU:    1.923
  Cycle:    100 Energy:      -428.062461  Gnorm:      0.000838  CPU:    1.970
  Cycle:    101 Energy:      -428.062462  Gnorm:      0.001392  CPU:    1.978
  Cycle:    102 Energy:      -428.062465  Gnorm:      0.001111  CPU:    2.001
  Cycle:    103 Energy:      -428.062467  Gnorm:      0.001018  CPU:    2.010
  Cycle:    104 Energy:      -428.062469  Gnorm:      0.000724  CPU:    2.033
  Cycle:    105 Energy:      -428.062470  Gnorm:      0.000611  CPU:    2.042
  Cycle:    106 Energy:      -428.062470  Gnorm:      0.000426  CPU:    2.064
  Cycle:    107 Energy:      -428.062470  Gnorm:      0.000404  CPU:    2.074
  Cycle:    108 Energy:      -428.062471  Gnorm:      0.000709  CPU:    2.103
  Cycle:    109 Energy:      -428.062473  Gnorm:      0.000800  CPU:    2.111
  Cycle:    110 Energy:      -428.062474  Gnorm:      0.000612  CPU:    2.134
  Cycle:    111 Energy:      -428.062475  Gnorm:      0.000386  CPU:    2.142
  Cycle:    112 Energy:      -428.062475  Gnorm:      0.000342  CPU:    2.166


  **** Optimisation achieved ****


  Final energy =    -428.06247519 eV
  Final Gnorm  =       0.00033097

  Components of energy : 

--------------------------------------------------------------------------------
  Interatomic potentials     =           0.00000000 eV    
  Brenner potentials         =        -428.06247519 eV    
  Monopole - monopole (real) =           0.00000000 eV    
  Monopole - monopole (recip)=           0.00000000 eV    
  Monopole - monopole (total)=           0.00000000 eV    
--------------------------------------------------------------------------------
  Total lattice energy       =        -428.06247519 eV    
--------------------------------------------------------------------------------
  Total lattice energy       =          -41301.4853 kJ/(mole unit cells)
--------------------------------------------------------------------------------

  Final fractional coordinates of atoms :

--------------------------------------------------------------------------------
   No.  Atomic        x           y          z          Radius
        Label       (Frac)      (Frac)     (Frac)       (Angs) 
--------------------------------------------------------------------------------
     1  C     c     0.025100    0.587150    0.365320    0.000000
     2  C     c     0.260387    0.101894    0.106373    0.000000
     3  C     c     0.099955    0.439812    0.266886    0.000000
     4  C     c     0.879245    0.967350    0.452637    0.000000
     5  C     c     0.478173    0.915405    0.989119    0.000000
     6  C     c     0.785585    0.448661    0.221832    0.000000
     7  C     c     0.918673    0.633205    0.717877    0.000000
     8  C     c     0.810459    0.550438    0.589049    0.000000
     9  C     c     0.132881    0.380463    0.640022    0.000000
    10  C     c     0.406141    0.763179    0.117247    0.000000
    11  C     c     0.887971    0.253456    0.745701    0.000000
    12  C     c     0.573004    0.894437    0.556800    0.000000
    13  C     c     0.425258    0.240673    0.631743    0.000000
    14  C     c     0.203119    0.981549    0.797322    0.000000
    15  C     c     0.521311    0.607292    0.405743    0.000000
    16  C     c     0.989234    0.936891    0.118710    0.000000
    17  C     c     0.139854    0.820114    0.858255    0.000000
    18  C     c     0.350433    0.687649    0.663451    0.000000
    19  C     c     0.737107    0.381656    0.682974    0.000000
    20  C     c     0.042830    0.260679    0.264326    0.000000
    21  C     c     0.936052    0.175068    0.420076    0.000000
    22  C     c     0.844020    0.613956    0.415267    0.000000
    23  C     c     0.481640    0.814557    0.688899    0.000000
    24  C     c     0.794199    0.299445    0.329177    0.000000
    25  C     c     0.667952    0.157096    0.014008    0.000000
    26  C     c     0.520506    0.603534    0.088473    0.000000
    27  C     c     0.604873    0.280449    0.570641    0.000000
    28  C     c     0.635806    0.986565    0.117376    0.000000
    29  C     c     0.481594    0.915391    0.249035    0.000000
    30  C     c     0.340507    0.055158    0.923024    0.000000
    31  C     c     0.808712    0.109855    0.881656    0.000000
    32  C     c     0.861124    0.762010    0.837046    0.000000
    33  C     c     0.307815    0.395377    0.577915    0.000000
    34  C     c     0.228974    0.687027    0.123510    0.000000
    35  C     c     0.071209    0.512114    0.778726    0.000000
    36  C     c     0.325673    0.103384    0.507916    0.000000
    37  C     c     0.118023    0.742180    0.424094    0.000000
    38  C     c     0.542710    0.313305    0.956355    0.000000
    39  C     c     0.061709    0.132794    0.107648    0.000000
    40  C     c     0.768666    0.938981    0.795565    0.000000
    41  C     c     0.393062    0.556974    0.534771    0.000000
    42  C     c     0.067572    0.897741    0.497655    0.000000
    43  C     c     0.997406    0.429023    0.953988    0.000000
    44  C     c     0.240270    0.501488    0.158409    0.000000
    45  C     c     0.199319    0.670304    0.769434    0.000000
    46  C     c     0.889396    0.518486    0.081436    0.000000
    47  C     c     0.802423    0.860441    0.153382    0.000000
    48  C     c     0.981649    0.222693    0.947525    0.000000
    49  C     c     0.776457    0.804215    0.348885    0.000000
    50  C     c     0.819157    0.698211    0.025097    0.000000
    51  C     c     0.159383    0.041455    0.607007    0.000000
    52  C     c     0.478392    0.263279    0.275866    0.000000
    53  C     c     0.435122    0.400417    0.123258    0.000000
    54  C     c     0.367970    0.086439    0.290660    0.000000
    55  C     c     0.624473    0.267245    0.392040    0.000000
    56  C     c     0.423165    0.209110    0.831642    0.000000
    57  C     c     0.643719    0.453697    0.849929    0.000000
    58  C     c     0.738138    0.962459    0.601933    0.000000
    59  C     c     0.103284    0.802856    0.042829    0.000000
    60  C     c     0.616149    0.535533    0.254080    0.000000
    61  C     c     0.574036    0.806869    0.388134    0.000000
    62  C     c     0.027137    0.210249    0.603287    0.000000
    63  C     c     0.639462    0.638742    0.932446    0.000000
    64  C     c     0.588454    0.822099    0.852382    0.000000
--------------------------------------------------------------------------------

  Final internal derivatives :

--------------------------------------------------------------------------------
   No.  Atomic          a             b             c           Radius
        Label          (eV)          (eV)          (eV)        (eV/Angs)
--------------------------------------------------------------------------------
      1 C     c       0.000000      0.000000      0.000000      0.000000
      2 C     c       0.002995      0.007938      0.003846      0.000000
      3 C     c       0.001650      0.003761     -0.000099      0.000000
      4 C     c       0.002831      0.006152      0.002671      0.000000
      5 C     c       0.001692      0.008006      0.003764      0.000000
      6 C     c       0.001638      0.006195      0.002600      0.000000
      7 C     c       0.003739      0.008218      0.003002      0.000000
      8 C     c       0.000656      0.006588      0.005875      0.000000
      9 C     c       0.001452      0.006769      0.003297      0.000000
     10 C     c       0.001950      0.007991      0.004802      0.000000
     11 C     c       0.000919      0.008763      0.003013      0.000000
     12 C     c       0.001820      0.007125      0.004074      0.000000
     13 C     c       0.001329      0.007676      0.004608      0.000000
     14 C     c       0.001887      0.006814      0.002919      0.000000
     15 C     c       0.001802      0.006275      0.003424      0.000000
     16 C     c       0.002432      0.006624      0.002773      0.000000
     17 C     c       0.001170      0.006477      0.003558      0.000000
     18 C     c       0.002032      0.007362      0.004011      0.000000
     19 C     c       0.002817      0.007665      0.004394      0.000000
     20 C     c       0.001628      0.004915      0.002674      0.000000
     21 C     c       0.001612      0.005958      0.002462      0.000000
     22 C     c       0.001449      0.006445      0.002337      0.000000
     23 C     c       0.000957      0.007043      0.004715      0.000000
     24 C     c       0.001964      0.006639      0.004095      0.000000
     25 C     c       0.002048      0.006761      0.003848      0.000000
     26 C     c       0.000532      0.007729      0.004350      0.000000
     27 C     c       0.001317      0.008168      0.003821      0.000000
     28 C     c       0.001479      0.007101      0.004365      0.000000
     29 C     c       0.002034      0.006824      0.004019      0.000000
     30 C     c       0.001757      0.006826      0.003976      0.000000
     31 C     c       0.001518      0.006650      0.003133      0.000000
     32 C     c       0.003529      0.008046      0.003625      0.000000
     33 C     c       0.001630      0.006540      0.003152      0.000000
     34 C     c       0.001483      0.006613      0.003422      0.000000
     35 C     c       0.001634      0.006203      0.004374      0.000000
     36 C     c       0.002249      0.006344     -0.000702      0.000000
     37 C     c      -0.000402      0.002052      0.001658      0.000000
     38 C     c       0.001653      0.007071      0.003801      0.000000
     39 C     c       0.000636      0.004924      0.002653      0.000000
     40 C     c       0.002302      0.006516      0.003702      0.000000
     41 C     c       0.001240      0.007505      0.003816      0.000000
     42 C     c       0.002747      0.003563      0.002267      0.000000
     43 C     c       0.002361      0.006229      0.003970      0.000000
     44 C     c       0.001936      0.005241      0.001526      0.000000
     45 C     c       0.001773      0.006370      0.002554      0.000000
     46 C     c       0.001732      0.007381      0.002837      0.000000
     47 C     c       0.001962      0.005745      0.003617      0.000000
     48 C     c       0.002363      0.006098      0.003332      0.000000
     49 C     c       0.002097      0.005848      0.003712      0.000000
     50 C     c       0.001892      0.007127      0.003908      0.000000
     51 C     c       0.001467      0.005492      0.003303      0.000000
     52 C     c       0.001583      0.006561      0.003404      0.000000
     53 C     c       0.002853      0.006461      0.003543      0.000000
     54 C     c       0.001057      0.008009      0.006588      0.000000
     55 C     c       0.001366      0.006738      0.003680      0.000000
     56 C     c       0.001859      0.007069      0.002868      0.000000
     57 C     c       0.001308      0.007087      0.003540      0.000000
     58 C     c       0.003243      0.007362      0.003936      0.000000
     59 C     c       0.000080      0.006331      0.004535      0.000000
     60 C     c       0.000954      0.007251      0.004840      0.000000
     61 C     c       0.002137      0.007135      0.003209      0.000000
     62 C     c       0.001445      0.004932      0.002390      0.000000
     63 C     c       0.001266      0.007549      0.004191      0.000000
     64 C     c       0.001906      0.007335      0.003670      0.000000
--------------------------------------------------------------------------------
  Maximum abs         0.003739      0.008763      0.006588      0.000000
--------------------------------------------------------------------------------


  Time to end of optimisation =       2.1754 seconds


  Peak dynamic memory used =       1.98 MB 


  Timing analysis for GULP :

--------------------------------------------------------------------------------
  Task / Subroutine                                          Time (Seconds)
--------------------------------------------------------------------------------
  Calculation of Brenner energy and derivatives                   2.1307
--------------------------------------------------------------------------------
  Total CPU time                                                  2.1754
--------------------------------------------------------------------------------


  CIF file written as opti_1.0200.cif


  Job Finished at 16:48.34 11th August     2020                               

