********************************************************************************
*                       GENERAL UTILITY LATTICE PROGRAM                        *
*                                 Julian Gale                                  *
*                       Curtin Institute for Computation                       *
*                    School of Molecular and Life Sciences                     *
*                    Curtin University, Western Australia                      *
********************************************************************************
* Version = 5.2.0 * Last modified =  17th December 2019                        *
********************************************************************************
*  optimise     - perform optimisation run                                     *
*  conp         - constant pressure calculation                                *
*  isotropic    - only isotropic cell expansion to be allowed                  *
*  property     - calculate properties for final geometry                      *
*  phonon       - calculate phonons for final geometry                         *
*  rfo          - optimisation step to be determined by RFO method             *
********************************************************************************
* ASE calculation                                                              *
********************************************************************************


  Job Started  at 12:59.08 31st July       2020                               

  Number of CPUs =     1


  Total number of configurations input =      1

********************************************************************************
*  Input for Configuration =   1                                               *
********************************************************************************

  Formula = C64                                                         

  Number of irreducible atoms/shells =      64


  Total number atoms/shells =      64

  Dimensionality = 3               :  Bulk   



  Cartesian lattice vectors (Angstroms) :

        7.779000    0.000000    0.000000
       -0.046809    7.371951    0.000000
        0.151545    0.130190    7.707111

  Cell parameters (Angstroms/Degrees):

  a =       7.7790    alpha =  89.0396
  b =       7.3721    beta  =  88.8737
  c =       7.7097    gamma =  90.3638

  Initial cell volume =         441.975142 Angs**3

  Temperature of configuration =   0.00     K 

  Pressure of configuration =         0.000 GPa 

  Fractional coordinates of asymmetric unit :

--------------------------------------------------------------------------------
   No.  Atomic       x           y          z         Charge      Occupancy
        Label      (Frac)      (Frac)     (Frac)        (e)         (Frac)  
--------------------------------------------------------------------------------
      1 C     c    0.476040    0.519880    0.065020     0.00000    1.000000    
      2 C     c    0.411160 *  0.735870 *  0.306460 *   0.00000    1.000000    
      3 C     c    0.290630 *  0.256520 *  0.902160 *   0.00000    1.000000    
      4 C     c    0.129450 *  0.014830 *  0.621170 *   0.00000    1.000000    
      5 C     c    0.963080 *  0.853960 *  0.882730 *   0.00000    1.000000    
      6 C     c    0.797030 *  0.483710 *  0.580490 *   0.00000    1.000000    
      7 C     c    0.619690 *  0.417870 *  0.679190 *   0.00000    1.000000    
      8 C     c    0.793210 *  0.715480 *  0.326710 *   0.00000    1.000000    
      9 C     c    0.890150 *  0.254380 *  0.329220 *   0.00000    1.000000    
     10 C     c    0.680110 *  0.164990 *  0.130870 *   0.00000    1.000000    
     11 C     c    0.881520 *  0.037670 *  0.366460 *   0.00000    1.000000    
     12 C     c    0.965300 *  0.956830 *  0.527730 *   0.00000    1.000000    
     13 C     c    0.511710 *  0.063350 *  0.141940 *   0.00000    1.000000    
     14 C     c    0.561910 *  0.986600 *  0.486750 *   0.00000    1.000000    
     15 C     c    0.463380 *  0.321500 *  0.998170 *   0.00000    1.000000    
     16 C     c    0.953150 *  0.359930 *  0.487030 *   0.00000    1.000000    
     17 C     c    0.159530 *  0.418550 *  0.831000 *   0.00000    1.000000    
     18 C     c    0.831320 *  0.734130 *  0.815610 *   0.00000    1.000000    
     19 C     c    0.923440 *  0.955310 *  0.038480 *   0.00000    1.000000    
     20 C     c    0.149130 *  0.914650 *  0.798040 *   0.00000    1.000000    
     21 C     c    0.868330 *  0.656490 *  0.654080 *   0.00000    1.000000    
     22 C     c    0.882530 *  0.134360 *  0.724060 *   0.00000    1.000000    
     23 C     c    0.502190 *  0.598100 *  0.412420 *   0.00000    1.000000    
     24 C     c    0.653670 *  0.705460 *  0.883080 *   0.00000    1.000000    
     25 C     c    0.639900 *  0.590170 *  0.029440 *   0.00000    1.000000    
     26 C     c    0.788150 *  0.979040 *  0.716050 *   0.00000    1.000000    
     27 C     c    0.480730 *  0.449000 *  0.577460 *   0.00000    1.000000    
     28 C     c    0.359850 *  0.641820 *  0.140010 *   0.00000    1.000000    
     29 C     c    0.596460 *  0.956870 *  0.683180 *   0.00000    1.000000    
     30 C     c    0.723920 *  0.332840 *  0.237340 *   0.00000    1.000000    
     31 C     c    0.004600 *  0.189770 *  0.150310 *   0.00000    1.000000    
     32 C     c    0.971640 *  0.400080 *  0.893420 *   0.00000    1.000000    
     33 C     c    0.510110 *  0.786750 *  0.784760 *   0.00000    1.000000    
     34 C     c    0.842110 *  0.142720 *  0.028260 *   0.00000    1.000000    
     35 C     c    0.358260 *  0.178490 *  0.703580 *   0.00000    1.000000    
     36 C     c    0.115350 *  0.484530 *  0.450960 *   0.00000    1.000000    
     37 C     c    0.182510 *  0.160130 *  0.075630 *   0.00000    1.000000    
     38 C     c    0.285060 *  0.403350 *  0.512390 *   0.00000    1.000000    
     39 C     c    0.100020 *  0.684310 *  0.419590 *   0.00000    1.000000    
     40 C     c    0.933150 *  0.504210 *  0.037230 *   0.00000    1.000000    
     41 C     c    0.828840 *  0.254970 *  0.865450 *   0.00000    1.000000    
     42 C     c    0.363580 *  0.214480 *  0.172630 *   0.00000    1.000000    
     43 C     c    0.405280 *  0.122530 *  0.503690 *   0.00000    1.000000    
     44 C     c    0.986280 *  0.716290 *  0.267100 *   0.00000    1.000000    
     45 C     c    0.397860 *  0.285020 *  0.361780 *   0.00000    1.000000    
     46 C     c    0.566280 *  0.399230 *  0.338510 *   0.00000    1.000000    
     47 C     c    0.318690 *  0.767000 *  0.790740 *   0.00000    1.000000    
     48 C     c    0.939770 *  0.909870 *  0.215580 *   0.00000    1.000000    
     49 C     c    0.767930 *  0.486870 *  0.105730 *   0.00000    1.000000    
     50 C     c    0.258890 *  0.807760 *  0.415380 *   0.00000    1.000000    
     51 C     c    0.705740 *  0.558080 *  0.411870 *   0.00000    1.000000    
     52 C     c    0.960490 *  0.764360 *  0.535100 *   0.00000    1.000000    
     53 C     c    0.235680 *  0.602970 *  0.871410 *   0.00000    1.000000    
     54 C     c    0.047140 *  0.614220 *  0.119090 *   0.00000    1.000000    
     55 C     c    0.623490 *  0.286800 *  0.846290 *   0.00000    1.000000    
     56 C     c    0.442360 *  0.006170 *  0.965000 *   0.00000    1.000000    
     57 C     c    0.522080 *  0.914800 *  0.286080 *   0.00000    1.000000    
     58 C     c    0.208570 *  0.638270 *  0.050220 *   0.00000    1.000000    
     59 C     c    0.028040 *  0.210590 *  0.611450 *   0.00000    1.000000    
     60 C     c    0.271320 *  0.966750 *  0.494030 *   0.00000    1.000000    
     61 C     c    0.720330 *  0.906340 *  0.357740 *   0.00000    1.000000    
     62 C     c    0.252060 *  0.993700 *  0.957060 *   0.00000    1.000000    
     63 C     c    0.512510 *  0.101740 *  0.803720 *   0.00000    1.000000    
     64 C     c    0.196140 *  0.305350 *  0.668340 *   0.00000    1.000000    
--------------------------------------------------------------------------------


  Constraints : 

--------------------------------------------------------------------------------
  Constraint no.      Unconstrained     Constrained    Coefficient    Offset
                         Variable         Variable
--------------------------------------------------------------------------------
           1              Strain 1        Strain 2       1.00000      0.0000
           2              Strain 1        Strain 3       1.00000      0.0000
--------------------------------------------------------------------------------

  Brillouin zone sampling points :

--------------------------------------------------------------------------------
  Point number          x          y          z            Weight
--------------------------------------------------------------------------------
        1           0.000000   0.000000   0.000000     1.00000000
--------------------------------------------------------------------------------


********************************************************************************
*  General input information                                                   *
********************************************************************************

  Species output for all configurations : 

--------------------------------------------------------------------------------
  Species    Type    Atomic    Atomic    Charge       Radii (Angs)     Library
                     Number     Mass       (e)     Cova   Ionic  VDW   Symbol
--------------------------------------------------------------------------------
    C        Core        6      12.01   0.000000   0.770  0.000  1.530          
--------------------------------------------------------------------------------


  Lattice summation method               =    Ewald          (3-D)
                                         =    Parry          (2-D)
                                         =    Saunders et al (1-D)
  Accuracy factor for lattice sums       =   12.000


  Analytic derivatives to be used

  Time limit = Infinity

  Maximum range for interatomic potentials =    100000.000000 Angstroms

  Brenner et al 2002 potential to be used with explicit splines for P


********************************************************************************
*  Output for configuration   1                                                *
********************************************************************************


  Components of energy : 

--------------------------------------------------------------------------------
  Interatomic potentials     =           0.00000000 eV    
  Brenner potentials         =        -422.13629285 eV    
  Monopole - monopole (real) =           0.00000000 eV    
  Monopole - monopole (recip)=           0.00000000 eV    
  Monopole - monopole (total)=           0.00000000 eV    
--------------------------------------------------------------------------------
  Total lattice energy       =        -422.13629285 eV    
--------------------------------------------------------------------------------
  Total lattice energy       =          -40729.6993 kJ/(mole unit cells)
--------------------------------------------------------------------------------


  Number of variables =      190

  Maximum number of calculations  =          2000
  Maximum Hessian update interval =            10
  Maximum step size               =   1.000000000
  Maximum parameter tolerance     =   0.000010000
  Maximum function  tolerance     =   0.000010000
  Maximum gradient  tolerance     =   0.001000000
  Maximum gradient  component     =   0.010000000

  Symmetry not applied to optimisation

  Cell parameters to be optimised using strains

  RFO method to be used

  DFP hessian update to be used

  Lower half triangular hessian to be used

  Start of bulk optimisation :

  Cycle:      0 Energy:      -422.136293  Gnorm:      0.271244  CPU:    0.349
  ** Hessian has required structure
  Cycle:      1 Energy:      -422.511486  Gnorm:      0.142356  CPU:    0.721
  ** Hessian has required structure
  Cycle:      2 Energy:      -422.557289  Gnorm:      0.029112  CPU:    0.983
  ** Hessian has required structure
  Cycle:      3 Energy:      -422.559254  Gnorm:      0.015752  CPU:    1.315
  ** Hessian has required structure
  Cycle:      4 Energy:      -422.560128  Gnorm:      0.006835  CPU:    1.543
  ** Hessian has required structure
  Cycle:      5 Energy:      -422.560287  Gnorm:      0.005515  CPU:    1.651
  ** Hessian has required structure
  Cycle:      6 Energy:      -422.560352  Gnorm:      0.004380  CPU:    1.749
  ** Hessian has required structure
  Cycle:      7 Energy:      -422.560415  Gnorm:      0.003811  CPU:    1.835
  ** Hessian has required structure
  Cycle:      8 Energy:      -422.560485  Gnorm:      0.002348  CPU:    1.953
  ** Hessian has required structure
  Cycle:      9 Energy:      -422.560522  Gnorm:      0.000946  CPU:    2.060
  ** Hessian has required structure
  Cycle:     10 Energy:      -422.560528  Gnorm:      0.000168  CPU:    2.190
  ** Hessian has required structure


  **** Optimisation achieved ****


  Final energy =    -422.56052807 eV
  Final Gnorm  =       0.00004064

  Components of energy : 

--------------------------------------------------------------------------------
  Interatomic potentials     =           0.00000000 eV    
  Brenner potentials         =        -422.56052807 eV    
  Monopole - monopole (real) =           0.00000000 eV    
  Monopole - monopole (recip)=           0.00000000 eV    
  Monopole - monopole (total)=           0.00000000 eV    
--------------------------------------------------------------------------------
  Total lattice energy       =        -422.56052807 eV    
--------------------------------------------------------------------------------
  Total lattice energy       =          -40770.6315 kJ/(mole unit cells)
--------------------------------------------------------------------------------

  Final fractional coordinates of atoms :

--------------------------------------------------------------------------------
   No.  Atomic        x           y          z          Radius
        Label       (Frac)      (Frac)     (Frac)       (Angs) 
--------------------------------------------------------------------------------
     1  C     c     0.476040    0.519880    0.065020    0.000000
     2  C     c     0.408227    0.739567    0.304319    0.000000
     3  C     c     0.283498    0.257796    0.903542    0.000000
     4  C     c     0.121741    0.014999    0.619817    0.000000
     5  C     c     0.961630    0.858119    0.881768    0.000000
     6  C     c     0.791225    0.484810    0.577651    0.000000
     7  C     c     0.611652    0.418223    0.674252    0.000000
     8  C     c     0.791735    0.717883    0.328191    0.000000
     9  C     c     0.885063    0.252989    0.323858    0.000000
    10  C     c     0.677959    0.164612    0.130499    0.000000
    11  C     c     0.876745    0.039074    0.362683    0.000000
    12  C     c     0.961974    0.955969    0.523328    0.000000
    13  C     c     0.510698    0.062216    0.141506    0.000000
    14  C     c     0.554092    0.985782    0.487088    0.000000
    15  C     c     0.461769    0.326032    0.992995    0.000000
    16  C     c     0.946887    0.357159    0.482976    0.000000
    17  C     c     0.154066    0.421168    0.828522    0.000000
    18  C     c     0.831770    0.738729    0.814560    0.000000
    19  C     c     0.920124    0.954310    0.037081    0.000000
    20  C     c     0.147612    0.916408    0.794662    0.000000
    21  C     c     0.868365    0.655995    0.654383    0.000000
    22  C     c     0.879938    0.132585    0.720885    0.000000
    23  C     c     0.499464    0.600104    0.409769    0.000000
    24  C     c     0.653146    0.710263    0.882192    0.000000
    25  C     c     0.638742    0.591324    0.028021    0.000000
    26  C     c     0.781761    0.980407    0.706669    0.000000
    27  C     c     0.472508    0.453973    0.572725    0.000000
    28  C     c     0.358713    0.639339    0.140236    0.000000
    29  C     c     0.589574    0.956858    0.680287    0.000000
    30  C     c     0.718036    0.337395    0.232606    0.000000
    31  C     c     0.001145    0.187053    0.148079    0.000000
    32  C     c     0.965426    0.404094    0.890209    0.000000
    33  C     c     0.506117    0.789577    0.785064    0.000000
    34  C     c     0.837780    0.141476    0.024537    0.000000
    35  C     c     0.349607    0.176984    0.704322    0.000000
    36  C     c     0.114162    0.481016    0.449374    0.000000
    37  C     c     0.177467    0.156737    0.076337    0.000000
    38  C     c     0.281666    0.397799    0.512325    0.000000
    39  C     c     0.098909    0.680841    0.419434    0.000000
    40  C     c     0.930150    0.506575    0.035088    0.000000
    41  C     c     0.825714    0.254142    0.863558    0.000000
    42  C     c     0.362939    0.214002    0.165767    0.000000
    43  C     c     0.399466    0.120973    0.502594    0.000000
    44  C     c     0.983382    0.715555    0.265905    0.000000
    45  C     c     0.394912    0.281559    0.358750    0.000000
    46  C     c     0.560615    0.397314    0.336177    0.000000
    47  C     c     0.315273    0.767482    0.789303    0.000000
    48  C     c     0.937821    0.909938    0.211777    0.000000
    49  C     c     0.766281    0.492617    0.107937    0.000000
    50  C     c     0.254777    0.806799    0.411387    0.000000
    51  C     c     0.703915    0.556229    0.406272    0.000000
    52  C     c     0.957748    0.762407    0.533997    0.000000
    53  C     c     0.232480    0.605790    0.869395    0.000000
    54  C     c     0.043275    0.616503    0.115680    0.000000
    55  C     c     0.619961    0.289915    0.840108    0.000000
    56  C     c     0.437722    0.008806    0.964831    0.000000
    57  C     c     0.520088    0.915041    0.281556    0.000000
    58  C     c     0.206946    0.638764    0.050737    0.000000
    59  C     c     0.024088    0.212262    0.608444    0.000000
    60  C     c     0.263198    0.965977    0.492203    0.000000
    61  C     c     0.714848    0.905161    0.357285    0.000000
    62  C     c     0.247904    0.994029    0.956372    0.000000
    63  C     c     0.509551    0.102514    0.802485    0.000000
    64  C     c     0.189960    0.302950    0.668359    0.000000
--------------------------------------------------------------------------------

  Final Cartesian lattice vectors (Angstroms) :

        7.777171    0.000000    0.000000
       -0.046798    7.370218    0.000000
        0.151509    0.130159    7.705299


  Final cell parameters and derivatives :

--------------------------------------------------------------------------------
       a            7.777171 Angstrom     dE/de1(xx)     0.000691 eV/strain
       b            7.370367 Angstrom     dE/de2(yy)     0.000000 eV/strain
       c            7.707887 Angstrom     dE/de3(zz)     0.000000 eV/strain
       alpha       89.039600 Degrees      dE/de4(yz)     0.000000 eV/strain
       beta        88.873700 Degrees      dE/de5(xz)     0.000000 eV/strain
       gamma       90.363800 Degrees      dE/de6(xy)     0.000000 eV/strain
--------------------------------------------------------------------------------

  Primitive cell volume =           441.663436 Angs**3

  Density of cell =      2.889931 g/cm**3

  Non-primitive cell volume =           441.663436 Angs**3


  Final internal derivatives :

--------------------------------------------------------------------------------
   No.  Atomic          a             b             c           Radius
        Label          (eV)          (eV)          (eV)        (eV/Angs)
--------------------------------------------------------------------------------
      1 C     c       0.000000      0.000000      0.000000      0.000000
      2 C     c       0.000495     -0.002087     -0.000099      0.000000
      3 C     c      -0.000429     -0.000775     -0.000436      0.000000
      4 C     c       0.000781     -0.000795     -0.000507      0.000000
      5 C     c      -0.000025     -0.000389     -0.000216      0.000000
      6 C     c       0.000242     -0.000147      0.000477      0.000000
      7 C     c       0.000028     -0.000827     -0.001331      0.000000
      8 C     c       0.000742      0.000388     -0.000544      0.000000
      9 C     c      -0.000007      0.000545      0.000197      0.000000
     10 C     c      -0.000123     -0.000209      0.000266      0.000000
     11 C     c       0.000165     -0.000077      0.000281      0.000000
     12 C     c      -0.001328      0.000489      0.000106      0.000000
     13 C     c       0.000022      0.000225     -0.000736      0.000000
     14 C     c       0.000273     -0.000146     -0.000059      0.000000
     15 C     c       0.000633     -0.000227     -0.000207      0.000000
     16 C     c      -0.000092     -0.000764     -0.000354      0.000000
     17 C     c      -0.000225     -0.000164      0.000144      0.000000
     18 C     c      -0.000262      0.000701     -0.000598      0.000000
     19 C     c      -0.000422      0.000403     -0.000426      0.000000
     20 C     c       0.000974     -0.000384     -0.000118      0.000000
     21 C     c      -0.000254     -0.000076     -0.000478      0.000000
     22 C     c      -0.000119     -0.000050      0.000391      0.000000
     23 C     c      -0.000257      0.000820      0.001081      0.000000
     24 C     c      -0.000028     -0.000094      0.000061      0.000000
     25 C     c      -0.000199     -0.000189     -0.000199      0.000000
     26 C     c       0.000674     -0.000820      0.000024      0.000000
     27 C     c      -0.000953      0.000585      0.000183      0.000000
     28 C     c      -0.000942      0.001077     -0.000428      0.000000
     29 C     c       0.000130      0.000013      0.000377      0.000000
     30 C     c      -0.000143      0.000240     -0.000162      0.000000
     31 C     c      -0.000412      0.000061     -0.000082      0.000000
     32 C     c      -0.000290      0.000299      0.000124      0.000000
     33 C     c      -0.000196     -0.000028      0.000249      0.000000
     34 C     c      -0.000314      0.000192      0.000041      0.000000
     35 C     c       0.000286      0.000477     -0.000551      0.000000
     36 C     c       0.000062     -0.000089     -0.000011      0.000000
     37 C     c      -0.000083      0.000209     -0.000271      0.000000
     38 C     c      -0.001165      0.000706     -0.000548      0.000000
     39 C     c       0.000022     -0.000345      0.000319      0.000000
     40 C     c       0.000177     -0.000072      0.000334      0.000000
     41 C     c       0.000332     -0.000152     -0.000056      0.000000
     42 C     c       0.000285      0.000463      0.000128      0.000000
     43 C     c      -0.000130      0.000651      0.000047      0.000000
     44 C     c       0.000330     -0.000238     -0.000537      0.000000
     45 C     c       0.000801     -0.001380     -0.001685      0.000000
     46 C     c       0.000124      0.000367      0.001935      0.000000
     47 C     c      -0.000215      0.000559     -0.000159      0.000000
     48 C     c      -0.000783     -0.000649      0.001401      0.000000
     49 C     c      -0.000024      0.000168     -0.000173      0.000000
     50 C     c      -0.000291     -0.000021     -0.000212      0.000000
     51 C     c      -0.000015      0.000115     -0.000124      0.000000
     52 C     c      -0.000001     -0.000100      0.000042      0.000000
     53 C     c       0.000073     -0.000318      0.000042      0.000000
     54 C     c      -0.000014      0.000036      0.000229      0.000000
     55 C     c      -0.000088      0.000240      0.000391      0.000000
     56 C     c       0.000622     -0.000186     -0.000024      0.000000
     57 C     c      -0.000214     -0.000261     -0.000097      0.000000
     58 C     c      -0.000406      0.000101     -0.000223      0.000000
     59 C     c       0.000101      0.000861     -0.000846      0.000000
     60 C     c       0.000743      0.000571      0.000368      0.000000
     61 C     c      -0.000435      0.000535     -0.000078      0.000000
     62 C     c      -0.000057      0.000072     -0.000262      0.000000
     63 C     c      -0.000791     -0.000090      0.000229      0.000000
     64 C     c       0.001846     -0.000237      0.002666      0.000000
--------------------------------------------------------------------------------
  Maximum abs         0.001846      0.002087      0.002666      0.000000
--------------------------------------------------------------------------------



  Elastic Constant Matrix: (Units=GPa)

-------------------------------------------------------------------------------
  Indices      1         2         3         4         5         6    
-------------------------------------------------------------------------------
       1    557.7600  225.8849  178.9343    0.7667  -10.6243   20.7365
       2    225.8849  301.7920  176.0594  -24.0875  -12.8450    4.0299
       3    178.9343  176.0594  427.1753   -9.8484  -54.4588  -26.2647
       4      0.7667  -24.0875   -9.8484  115.3583  -11.3159  -26.5796
       5    -10.6243  -12.8450  -54.4588  -11.3159  128.5143   41.1593
       6     20.7365    4.0299  -26.2647  -26.5796   41.1593  108.9244
-------------------------------------------------------------------------------


  Elastic Compliance Matrix: (Units=1/GPa)

-------------------------------------------------------------------------------
  Indices      1         2         3         4         5         6    
-------------------------------------------------------------------------------
       1    0.002687 -0.001790 -0.000441 -0.000589  0.000031 -0.000707
       2   -0.001790  0.005645 -0.001571  0.001057 -0.000182  0.000080
       3   -0.000441 -0.001571  0.003349  0.000203  0.001051  0.000602
       4   -0.000589  0.001057  0.000203  0.009474  0.000225  0.002349
       5    0.000031 -0.000182  0.001051  0.000225  0.009251 -0.003187
       6   -0.000707  0.000080  0.000602  0.002349 -0.003187  0.011235
-------------------------------------------------------------------------------

  Mechanical properties :

-------------------------------------------------------------------------------
  Convention :                    Reuss         Voigt         Hill
-------------------------------------------------------------------------------
  Bulk  Modulus (GPa)     =     245.25287     272.05385     258.65336
  Shear Modulus (GPa)     =      98.80697     117.61598     108.21147
-------------------------------------------------------------------------------
  Velocity S-wave (km/s)  =       5.84723       6.37954       6.11918
  Velocity P-wave (km/s)  =      11.42153      12.18209      11.80793
-------------------------------------------------------------------------------
  Compressibility (1/GPa) =    0.00407742
-------------------------------------------------------------------------------
  Stress axis :                     x             y             z
-------------------------------------------------------------------------------
  Youngs Moduli (GPa)     =     372.15835     177.13344     298.63387
-------------------------------------------------------------------------------
  Poissons Ratio (x)      =                     0.31712       0.13163
  Poissons Ratio (y)      =       0.66628                     0.46908
  Poissons Ratio (z)      =       0.16404       0.27823
-------------------------------------------------------------------------------


  Piezoelectric Strain Matrix: (Units=C/m**2)

-------------------------------------------------------------------------------
  Indices      1         2         3         4         5         6    
-------------------------------------------------------------------------------
       x    -0.00000  -0.00000  -0.00000  -0.00000  -0.00000  -0.00000
       y    -0.00000  -0.00000  -0.00000  -0.00000  -0.00000  -0.00000
       z    -0.00000  -0.00000  -0.00000  -0.00000  -0.00000  -0.00000
-------------------------------------------------------------------------------


  Piezoelectric Stress Matrix: (Units=10**-11 C/N)

-------------------------------------------------------------------------------
  Indices      1         2         3         4         5         6    
-------------------------------------------------------------------------------
       x     0.00000   0.00000   0.00000   0.00000   0.00000   0.00000
       y     0.00000   0.00000   0.00000   0.00000   0.00000   0.00000
       z     0.00000   0.00000   0.00000   0.00000   0.00000   0.00000
-------------------------------------------------------------------------------


  Static dielectric constant tensor : 

-------------------------------------------------------------------------------
              x         y         z
-------------------------------------------------------------------------------
       x     1.00000   0.00000   0.00000
       y     0.00000   1.00000   0.00000
       z     0.00000   0.00000   1.00000
--------------------------------------------------------------------------------

  Static refractive indices : 

-------------------------------------------------------------------------------
    1 =    1.00000      2 =    1.00000      3 =    1.00000
-------------------------------------------------------------------------------


  Phonon Calculation : 

  Number of k points for this configuration =        1

--------------------------------------------------------------------------------
  K point      1 =   0.000000  0.000000  0.000000  Weight =    1.000
--------------------------------------------------------------------------------

  Frequencies (cm-1) [NB: Negative implies an imaginary mode]:

   -0.00    0.00    0.00  135.37  158.20  178.70  209.96  229.14  231.57
  246.70  253.33  270.07  273.26  281.85  296.49  306.17  310.46  316.95
  323.18  325.87  335.70  346.77  358.41  364.56  367.06  380.66  385.43
  395.10  396.28  413.64  416.52  422.21  430.39  435.02  441.27  457.65
  459.74  466.83  477.95  479.06  493.14  495.80  506.43  511.87  518.77
  529.83  534.28  541.28  547.21  552.90  559.13  567.62  580.01  594.29
  599.68  603.35  611.97  618.13  623.69  631.07  635.56  646.23  650.95
  656.00  660.61  665.35  665.65  676.22  681.90  700.83  707.56  717.15
  722.33  736.80  743.97  745.67  752.17  762.47  776.69  777.64  784.32
  792.82  803.38  808.49  810.88  824.26  837.45  842.80  847.70  859.40
  871.45  880.10  882.07  891.00  897.47  916.02  919.70  936.21  939.70
  941.94  954.75  959.91  965.47  991.06  993.11 1003.45 1007.34 1013.08
 1015.55 1021.46 1030.63 1035.86 1042.26 1049.34 1056.21 1066.46 1069.30
 1087.20 1093.03 1099.88 1109.79 1115.46 1116.44 1128.34 1133.41 1147.11
 1158.76 1172.65 1174.22 1176.87 1190.49 1196.00 1201.21 1213.39 1223.45
 1241.31 1242.98 1253.82 1264.86 1278.02 1292.83 1301.15 1307.60 1318.18
 1329.09 1345.26 1354.58 1372.58 1376.43 1381.73 1388.80 1396.54 1408.49
 1421.38 1426.45 1429.89 1444.19 1466.73 1490.59 1492.63 1502.53 1537.04
 1548.03 1558.55 1567.09 1575.11 1581.29 1598.16 1618.96 1629.18 1638.09
 1643.24 1647.06 1750.63 1764.43 1784.22 1798.15 1838.65 1887.33 1932.88
 1948.62 2004.61 2005.22 2025.18 2050.30 2230.23 2528.04 2545.28 2599.77
 2885.51 2947.99 3110.93


--------------------------------------------------------------------------------
  Phonon properties (per mole of unit cells): Temperature =      0.000 K
--------------------------------------------------------------------------------
  Zero point energy            =       11.746851 eV
--------------------------------------------------------------------------------

  Phonon density of states : 

--------------------------------------------------------------------------------
 Frequency (cm-1) Density of States                                             
--------------------------------------------------------------------------------
    0.00000 |***************                                               0.010
   48.60830 |                                                              0.000
   97.21661 |*******                                                       0.005
  145.82491 |***************                                               0.010
  194.43322 |**********************                                        0.016
  243.04152 |*************************************                         0.026
  291.64982 |****************************************************          0.037
  340.25813 |*********************************************                 0.031
  388.86643 |****************************************************          0.037
  437.47474 |*********************************************                 0.031
  486.08304 |****************************************************          0.037
  534.69134 |*********************************************                 0.031
  583.29965 |****************************************************          0.037
  631.90795 |************************************************************  0.042
  680.51626 |*************************************                         0.026
  729.12456 |****************************************************          0.037
  777.73286 |*********************************************                 0.031
  826.34117 |*************************************                         0.026
  874.94947 |*********************************************                 0.031
  923.55778 |*********************************************                 0.031
  972.16608 |*********************************************                 0.031
 1020.77438 |************************************************************  0.042
 1069.38269 |*********************************************                 0.031
 1117.99099 |******************************                                0.021
 1166.59929 |****************************************************          0.037
 1215.20760 |******************************                                0.021
 1263.81590 |*************************************                         0.026
 1312.42421 |******************************                                0.021
 1361.03251 |*********************************************                 0.031
 1409.64081 |******************************                                0.021
 1458.24912 |******************************                                0.021
 1506.85742 |***************                                               0.010
 1555.46573 |*************************************                         0.026
 1604.07403 |*************************************                         0.026
 1652.68233 |                                                              0.000
 1701.29064 |                                                              0.000
 1749.89894 |******************************                                0.021
 1798.50725 |*******                                                       0.005
 1847.11555 |*******                                                       0.005
 1895.72385 |*******                                                       0.005
 1944.33216 |*******                                                       0.005
 1992.94046 |**********************                                        0.016
 2041.54877 |*******                                                       0.005
 2090.15707 |                                                              0.000
 2138.76537 |                                                              0.000
 2187.37368 |*******                                                       0.005
 2235.98198 |                                                              0.000
 2284.59029 |                                                              0.000
 2333.19859 |                                                              0.000
 2381.80689 |                                                              0.000
 2430.41520 |                                                              0.000
 2479.02350 |                                                              0.000
 2527.63181 |***************                                               0.010
 2576.24011 |*******                                                       0.005
 2624.84841 |                                                              0.000
 2673.45672 |                                                              0.000
 2722.06502 |                                                              0.000
 2770.67333 |                                                              0.000
 2819.28163 |                                                              0.000
 2867.88993 |*******                                                       0.005
 2916.49824 |*******                                                       0.005
 2965.10654 |                                                              0.000
 3013.71485 |                                                              0.000
 3062.32315 |*******                                                       0.005
--------------------------------------------------------------------------------



  Time to end of optimisation =       4.1840 seconds


  Peak dynamic memory used =       3.35 MB 


  Timing analysis for GULP :

--------------------------------------------------------------------------------
  Task / Subroutine                                          Time (Seconds)
--------------------------------------------------------------------------------
  Calculation of real space energy and derivatives                0.0002
  Calculation of Brenner energy and derivatives                   2.2407
  Calculation of phonons                                          0.3050
  Calculation and manipulation of Hessian matrix                  1.8201
--------------------------------------------------------------------------------
  Total CPU time                                                  4.1840
--------------------------------------------------------------------------------


  CIF file written as rfo.cif


  Job Finished at 12:59.12 31st July       2020                               

