********************************************************************************
*                       GENERAL UTILITY LATTICE PROGRAM                        *
*                                 Julian Gale                                  *
*                       Curtin Institute for Computation                       *
*                    School of Molecular and Life Sciences                     *
*                    Curtin University, Western Australia                      *
********************************************************************************
* Version = 5.2.0 * Last modified =  17th December 2019                        *
********************************************************************************
*  optimise     - perform optimisation run                                     *
*  conp         - constant pressure calculation                                *
*  isotropic    - only isotropic cell expansion to be allowed                  *
*  property     - calculate properties for final geometry                      *
*  phonon       - calculate phonons for final geometry                         *
*  lbfgs        - use limited memory BFGS update                               *
********************************************************************************
* ASE calculation                                                              *
********************************************************************************


  Job Started  at 19:26.55 29th July       2020                               

  Number of CPUs =     1


  Total number of configurations input =      1

********************************************************************************
*  Input for Configuration =   1                                               *
********************************************************************************

  Formula = C64                                                         

  Number of irreducible atoms/shells =      64


  Total number atoms/shells =      64

  Dimensionality = 3               :  Bulk   



  Cartesian lattice vectors (Angstroms) :

        7.777200    0.000000    0.000000
       -0.046798    7.370251    0.000000
        0.151509    0.130159    7.705312

  Cell parameters (Angstroms/Degrees):

  a =       7.7772    alpha =  89.0396
  b =       7.3704    beta  =  88.8737
  c =       7.7079    gamma =  90.3638

  Initial cell volume =         441.667836 Angs**3

  Temperature of configuration =   0.00     K 

  Pressure of configuration =         0.000 GPa 

  Fractional coordinates of asymmetric unit :

--------------------------------------------------------------------------------
   No.  Atomic       x           y          z         Charge      Occupancy
        Label      (Frac)      (Frac)     (Frac)        (e)         (Frac)  
--------------------------------------------------------------------------------
      1 C     c    0.476040    0.519880    0.065020     0.00000    1.000000    
      2 C     c    0.408230 *  0.739570 *  0.304320 *   0.00000    1.000000    
      3 C     c    0.283500 *  0.257800 *  0.903540 *   0.00000    1.000000    
      4 C     c    0.121740 *  0.015000 *  0.619820 *   0.00000    1.000000    
      5 C     c    0.961630 *  0.858120 *  0.881770 *   0.00000    1.000000    
      6 C     c    0.791230 *  0.484810 *  0.577650 *   0.00000    1.000000    
      7 C     c    0.611650 *  0.418220 *  0.674250 *   0.00000    1.000000    
      8 C     c    0.791740 *  0.717880 *  0.328190 *   0.00000    1.000000    
      9 C     c    0.885060 *  0.252990 *  0.323860 *   0.00000    1.000000    
     10 C     c    0.677960 *  0.164610 *  0.130500 *   0.00000    1.000000    
     11 C     c    0.876740 *  0.039070 *  0.362680 *   0.00000    1.000000    
     12 C     c    0.961970 *  0.955970 *  0.523330 *   0.00000    1.000000    
     13 C     c    0.510700 *  0.062220 *  0.141510 *   0.00000    1.000000    
     14 C     c    0.554090 *  0.985780 *  0.487090 *   0.00000    1.000000    
     15 C     c    0.461770 *  0.326030 *  0.993000 *   0.00000    1.000000    
     16 C     c    0.946890 *  0.357160 *  0.482980 *   0.00000    1.000000    
     17 C     c    0.154070 *  0.421170 *  0.828520 *   0.00000    1.000000    
     18 C     c    0.831770 *  0.738730 *  0.814560 *   0.00000    1.000000    
     19 C     c    0.920120 *  0.954310 *  0.037080 *   0.00000    1.000000    
     20 C     c    0.147610 *  0.916410 *  0.794660 *   0.00000    1.000000    
     21 C     c    0.868360 *  0.656000 *  0.654380 *   0.00000    1.000000    
     22 C     c    0.879940 *  0.132590 *  0.720880 *   0.00000    1.000000    
     23 C     c    0.499460 *  0.600100 *  0.409770 *   0.00000    1.000000    
     24 C     c    0.653150 *  0.710260 *  0.882190 *   0.00000    1.000000    
     25 C     c    0.638740 *  0.591320 *  0.028020 *   0.00000    1.000000    
     26 C     c    0.781760 *  0.980410 *  0.706670 *   0.00000    1.000000    
     27 C     c    0.472510 *  0.453970 *  0.572730 *   0.00000    1.000000    
     28 C     c    0.358710 *  0.639340 *  0.140240 *   0.00000    1.000000    
     29 C     c    0.589570 *  0.956860 *  0.680290 *   0.00000    1.000000    
     30 C     c    0.718040 *  0.337390 *  0.232610 *   0.00000    1.000000    
     31 C     c    0.001140 *  0.187050 *  0.148080 *   0.00000    1.000000    
     32 C     c    0.965430 *  0.404090 *  0.890210 *   0.00000    1.000000    
     33 C     c    0.506120 *  0.789580 *  0.785060 *   0.00000    1.000000    
     34 C     c    0.837780 *  0.141480 *  0.024540 *   0.00000    1.000000    
     35 C     c    0.349610 *  0.176980 *  0.704320 *   0.00000    1.000000    
     36 C     c    0.114160 *  0.481020 *  0.449370 *   0.00000    1.000000    
     37 C     c    0.177470 *  0.156740 *  0.076340 *   0.00000    1.000000    
     38 C     c    0.281670 *  0.397800 *  0.512320 *   0.00000    1.000000    
     39 C     c    0.098910 *  0.680840 *  0.419430 *   0.00000    1.000000    
     40 C     c    0.930150 *  0.506570 *  0.035090 *   0.00000    1.000000    
     41 C     c    0.825710 *  0.254140 *  0.863560 *   0.00000    1.000000    
     42 C     c    0.362940 *  0.214000 *  0.165770 *   0.00000    1.000000    
     43 C     c    0.399470 *  0.120970 *  0.502590 *   0.00000    1.000000    
     44 C     c    0.983380 *  0.715560 *  0.265900 *   0.00000    1.000000    
     45 C     c    0.394910 *  0.281560 *  0.358750 *   0.00000    1.000000    
     46 C     c    0.560620 *  0.397310 *  0.336180 *   0.00000    1.000000    
     47 C     c    0.315270 *  0.767480 *  0.789300 *   0.00000    1.000000    
     48 C     c    0.937820 *  0.909940 *  0.211780 *   0.00000    1.000000    
     49 C     c    0.766280 *  0.492620 *  0.107940 *   0.00000    1.000000    
     50 C     c    0.254780 *  0.806800 *  0.411390 *   0.00000    1.000000    
     51 C     c    0.703920 *  0.556230 *  0.406270 *   0.00000    1.000000    
     52 C     c    0.957750 *  0.762410 *  0.534000 *   0.00000    1.000000    
     53 C     c    0.232480 *  0.605790 *  0.869400 *   0.00000    1.000000    
     54 C     c    0.043270 *  0.616500 *  0.115680 *   0.00000    1.000000    
     55 C     c    0.619960 *  0.289910 *  0.840110 *   0.00000    1.000000    
     56 C     c    0.437720 *  0.008810 *  0.964830 *   0.00000    1.000000    
     57 C     c    0.520090 *  0.915040 *  0.281560 *   0.00000    1.000000    
     58 C     c    0.206950 *  0.638760 *  0.050740 *   0.00000    1.000000    
     59 C     c    0.024090 *  0.212260 *  0.608440 *   0.00000    1.000000    
     60 C     c    0.263200 *  0.965980 *  0.492200 *   0.00000    1.000000    
     61 C     c    0.714850 *  0.905160 *  0.357290 *   0.00000    1.000000    
     62 C     c    0.247900 *  0.994030 *  0.956370 *   0.00000    1.000000    
     63 C     c    0.509550 *  0.102510 *  0.802490 *   0.00000    1.000000    
     64 C     c    0.189960 *  0.302950 *  0.668360 *   0.00000    1.000000    
--------------------------------------------------------------------------------


  Constraints : 

--------------------------------------------------------------------------------
  Constraint no.      Unconstrained     Constrained    Coefficient    Offset
                         Variable         Variable
--------------------------------------------------------------------------------
           1              Strain 1        Strain 2       1.00000      0.0000
           2              Strain 1        Strain 3       1.00000      0.0000
--------------------------------------------------------------------------------

  Brillouin zone sampling points :

--------------------------------------------------------------------------------
  Point number          x          y          z            Weight
--------------------------------------------------------------------------------
        1           0.000000   0.000000   0.000000     1.00000000
--------------------------------------------------------------------------------


********************************************************************************
*  General input information                                                   *
********************************************************************************

  Species output for all configurations : 

--------------------------------------------------------------------------------
  Species    Type    Atomic    Atomic    Charge       Radii (Angs)     Library
                     Number     Mass       (e)     Cova   Ionic  VDW   Symbol
--------------------------------------------------------------------------------
    C        Core        6      12.01   0.000000   0.770  0.000  1.530          
--------------------------------------------------------------------------------


  Lattice summation method               =    Ewald          (3-D)
                                         =    Parry          (2-D)
                                         =    Saunders et al (1-D)
  Accuracy factor for lattice sums       =   12.000


  Analytic derivatives to be used

  Time limit = Infinity

  Maximum range for interatomic potentials =    100000.000000 Angstroms

  Brenner et al 2002 potential to be used with explicit splines for P


********************************************************************************
*  Output for configuration   1                                                *
********************************************************************************


  Components of energy : 

--------------------------------------------------------------------------------
  Interatomic potentials     =           0.00000000 eV    
  Brenner potentials         =        -422.56052457 eV    
  Monopole - monopole (real) =           0.00000000 eV    
  Monopole - monopole (recip)=           0.00000000 eV    
  Monopole - monopole (total)=           0.00000000 eV    
--------------------------------------------------------------------------------
  Total lattice energy       =        -422.56052457 eV    
--------------------------------------------------------------------------------
  Total lattice energy       =          -40770.6312 kJ/(mole unit cells)
--------------------------------------------------------------------------------


  Number of variables =      190

  Maximum number of calculations  =          2000
  Maximum Hessian update interval =            10
  Maximum step size               =   1.000000000
  Maximum parameter tolerance     =   0.000010000
  Maximum function  tolerance     =   0.000010000
  Maximum gradient  tolerance     =   0.001000000
  Maximum gradient  component     =   0.010000000

  Maximum LM gradient tolerance   =   0.900000000
  Symmetry not applied to optimisation

  Cell parameters to be optimised using strains

  Limited Memory BFGS to be used of order   10

  BFGS hessian update to be used

  Lower half triangular hessian to be used

  Start of bulk optimisation :

  Cycle:      0 Energy:      -422.560525  Gnorm:      0.000942  CPU:    0.061
  Cycle:      1 Energy:      -422.560526  Gnorm:      0.000660  CPU:    0.118
  Cycle:      2 Energy:      -422.560526  Gnorm:      0.000312  CPU:    0.147
  Cycle:      3 Energy:      -422.560527  Gnorm:      0.000185  CPU:    0.176


  **** Optimisation achieved ****


  Final energy =    -422.56052665 eV
  Final Gnorm  =       0.00014095

  Components of energy : 

--------------------------------------------------------------------------------
  Interatomic potentials     =           0.00000000 eV    
  Brenner potentials         =        -422.56052665 eV    
  Monopole - monopole (real) =           0.00000000 eV    
  Monopole - monopole (recip)=           0.00000000 eV    
  Monopole - monopole (total)=           0.00000000 eV    
--------------------------------------------------------------------------------
  Total lattice energy       =        -422.56052665 eV    
--------------------------------------------------------------------------------
  Total lattice energy       =          -40770.6314 kJ/(mole unit cells)
--------------------------------------------------------------------------------

  Final fractional coordinates of atoms :

--------------------------------------------------------------------------------
   No.  Atomic        x           y          z          Radius
        Label       (Frac)      (Frac)     (Frac)       (Angs) 
--------------------------------------------------------------------------------
     1  C     c     0.476040    0.519880    0.065020    0.000000
     2  C     c     0.408229    0.739568    0.304321    0.000000
     3  C     c     0.283499    0.257797    0.903541    0.000000
     4  C     c     0.121741    0.015000    0.619816    0.000000
     5  C     c     0.961629    0.858119    0.881768    0.000000
     6  C     c     0.791227    0.484810    0.577651    0.000000
     7  C     c     0.611654    0.418221    0.674254    0.000000
     8  C     c     0.791736    0.717883    0.328191    0.000000
     9  C     c     0.885063    0.252988    0.323860    0.000000
    10  C     c     0.677959    0.164612    0.130501    0.000000
    11  C     c     0.876743    0.039074    0.362683    0.000000
    12  C     c     0.961974    0.955971    0.523329    0.000000
    13  C     c     0.510699    0.062216    0.141508    0.000000
    14  C     c     0.554093    0.985780    0.487090    0.000000
    15  C     c     0.461770    0.326031    0.992998    0.000000
    16  C     c     0.946889    0.357160    0.482977    0.000000
    17  C     c     0.154068    0.421168    0.828521    0.000000
    18  C     c     0.831770    0.738731    0.814560    0.000000
    19  C     c     0.920121    0.954311    0.037081    0.000000
    20  C     c     0.147611    0.916409    0.794662    0.000000
    21  C     c     0.868363    0.655999    0.654381    0.000000
    22  C     c     0.879936    0.132587    0.720883    0.000000
    23  C     c     0.499464    0.600101    0.409769    0.000000
    24  C     c     0.653146    0.710261    0.882191    0.000000
    25  C     c     0.638743    0.591323    0.028020    0.000000
    26  C     c     0.781760    0.980410    0.706670    0.000000
    27  C     c     0.472509    0.453970    0.572727    0.000000
    28  C     c     0.358714    0.639338    0.140238    0.000000
    29  C     c     0.589574    0.956859    0.680289    0.000000
    30  C     c     0.718038    0.337393    0.232608    0.000000
    31  C     c     0.001145    0.187051    0.148081    0.000000
    32  C     c     0.965427    0.404091    0.890211    0.000000
    33  C     c     0.506118    0.789576    0.785062    0.000000
    34  C     c     0.837780    0.141477    0.024537    0.000000
    35  C     c     0.349607    0.176983    0.704322    0.000000
    36  C     c     0.114162    0.481017    0.449372    0.000000
    37  C     c     0.177468    0.156740    0.076337    0.000000
    38  C     c     0.281666    0.397801    0.512323    0.000000
    39  C     c     0.098909    0.680844    0.419432    0.000000
    40  C     c     0.930150    0.506571    0.035090    0.000000
    41  C     c     0.825714    0.254142    0.863558    0.000000
    42  C     c     0.362939    0.214001    0.165770    0.000000
    43  C     c     0.399467    0.120972    0.502592    0.000000
    44  C     c     0.983383    0.715557    0.265903    0.000000
    45  C     c     0.394913    0.281559    0.358751    0.000000
    46  C     c     0.560618    0.397310    0.336178    0.000000
    47  C     c     0.315271    0.767481    0.789302    0.000000
    48  C     c     0.937821    0.909939    0.211776    0.000000
    49  C     c     0.766280    0.492616    0.107939    0.000000
    50  C     c     0.254778    0.806800    0.411387    0.000000
    51  C     c     0.703916    0.556228    0.406271    0.000000
    52  C     c     0.957750    0.762408    0.533997    0.000000
    53  C     c     0.232481    0.605790    0.869397    0.000000
    54  C     c     0.043274    0.616502    0.115679    0.000000
    55  C     c     0.619960    0.289911    0.840110    0.000000
    56  C     c     0.437719    0.008809    0.964834    0.000000
    57  C     c     0.520090    0.915041    0.281557    0.000000
    58  C     c     0.206946    0.638762    0.050740    0.000000
    59  C     c     0.024089    0.212262    0.608443    0.000000
    60  C     c     0.263197    0.965979    0.492203    0.000000
    61  C     c     0.714849    0.905158    0.357289    0.000000
    62  C     c     0.247901    0.994031    0.956372    0.000000
    63  C     c     0.509550    0.102513    0.802487    0.000000
    64  C     c     0.189962    0.302950    0.668357    0.000000
--------------------------------------------------------------------------------

  Final Cartesian lattice vectors (Angstroms) :

        7.777176    0.000000    0.000000
       -0.046798    7.370229    0.000000
        0.151509    0.130159    7.705288


  Final cell parameters and derivatives :

--------------------------------------------------------------------------------
       a            7.777176 Angstrom     dE/de1(xx)     0.006269 eV/strain
       b            7.370378 Angstrom     dE/de2(yy)     0.000000 eV/strain
       c            7.707877 Angstrom     dE/de3(zz)     0.000000 eV/strain
       alpha       89.039600 Degrees      dE/de4(yz)     0.000000 eV/strain
       beta        88.873700 Degrees      dE/de5(xz)     0.000000 eV/strain
       gamma       90.363800 Degrees      dE/de6(xy)     0.000000 eV/strain
--------------------------------------------------------------------------------

  Primitive cell volume =           441.663812 Angs**3

  Density of cell =      2.889929 g/cm**3

  Non-primitive cell volume =           441.663812 Angs**3


  Final internal derivatives :

--------------------------------------------------------------------------------
   No.  Atomic          a             b             c           Radius
        Label          (eV)          (eV)          (eV)        (eV/Angs)
--------------------------------------------------------------------------------
      1 C     c       0.000000      0.000000      0.000000      0.000000
      2 C     c       0.000704      0.001193      0.001336      0.000000
      3 C     c       0.002409      0.000602      0.001996      0.000000
      4 C     c       0.000683     -0.000547     -0.001650      0.000000
      5 C     c       0.000187     -0.000737      0.000575      0.000000
      6 C     c       0.002266     -0.000633     -0.000818      0.000000
      7 C     c       0.000848     -0.002727      0.000711      0.000000
      8 C     c       0.000562      0.000334      0.000245      0.000000
      9 C     c      -0.001375      0.000484      0.002433      0.000000
     10 C     c      -0.000105      0.000213      0.002080      0.000000
     11 C     c      -0.001587     -0.000612     -0.000367      0.000000
     12 C     c       0.000064      0.002422     -0.000774      0.000000
     13 C     c       0.000222      0.000939     -0.000728      0.000000
     14 C     c       0.000329     -0.000410      0.002994      0.000000
     15 C     c       0.000698     -0.000496      0.001622      0.000000
     16 C     c       0.000539      0.000098      0.000772      0.000000
     17 C     c       0.001699      0.002025     -0.000176      0.000000
     18 C     c       0.002231     -0.002477      0.001395      0.000000
     19 C     c      -0.002392      0.001459      0.002349      0.000000
     20 C     c      -0.000865      0.000487     -0.000476      0.000000
     21 C     c      -0.002709      0.003153     -0.000728      0.000000
     22 C     c      -0.003065     -0.000410      0.000095      0.000000
     23 C     c      -0.000090     -0.000861      0.000140      0.000000
     24 C     c      -0.000316     -0.001183     -0.000667      0.000000
     25 C     c       0.001825      0.001043     -0.002533      0.000000
     26 C     c      -0.002271      0.005169      0.000575      0.000000
     27 C     c      -0.006379      0.002152      0.008960      0.000000
     28 C     c       0.001138     -0.000219      0.000285      0.000000
     29 C     c       0.000479      0.001487     -0.000135      0.000000
     30 C     c       0.000193     -0.000494      0.002200      0.000000
     31 C     c      -0.001424     -0.001268      0.000640      0.000000
     32 C     c      -0.000441     -0.002090      0.000717      0.000000
     33 C     c       0.002444      0.001461     -0.001166      0.000000
     34 C     c       0.000568     -0.000107     -0.000072      0.000000
     35 C     c       0.001047      0.000292     -0.000545      0.000000
     36 C     c      -0.000177     -0.002833     -0.000318      0.000000
     37 C     c       0.001396      0.001256      0.000580      0.000000
     38 C     c      -0.000319      0.000722      0.000492      0.000000
     39 C     c      -0.001923      0.002846     -0.001357      0.000000
     40 C     c      -0.000549     -0.000802      0.000380      0.000000
     41 C     c       0.000586     -0.000340     -0.001839      0.000000
     42 C     c       0.000174     -0.000944      0.001822      0.000000
     43 C     c       0.000995      0.000867     -0.003096      0.000000
     44 C     c       0.002209      0.000558     -0.001434      0.000000
     45 C     c      -0.000165     -0.000979     -0.003320      0.000000
     46 C     c       0.006765     -0.004495     -0.008186      0.000000
     47 C     c      -0.001087     -0.001302     -0.002421      0.000000
     48 C     c       0.001009      0.002327     -0.002966      0.000000
     49 C     c      -0.000943      0.000339      0.002747      0.000000
     50 C     c       0.000904     -0.001044     -0.000640      0.000000
     51 C     c      -0.000806      0.000546     -0.000644      0.000000
     52 C     c       0.002188     -0.001837     -0.000046      0.000000
     53 C     c       0.000814      0.000921      0.001512      0.000000
     54 C     c      -0.000976     -0.000517     -0.001008      0.000000
     55 C     c      -0.000856     -0.002817     -0.001215      0.000000
     56 C     c      -0.001165      0.001405      0.003353      0.000000
     57 C     c       0.000672     -0.000015     -0.001621      0.000000
     58 C     c      -0.003047     -0.001720      0.002878      0.000000
     59 C     c       0.001571     -0.000290     -0.002595      0.000000
     60 C     c      -0.001406      0.001045      0.001513      0.000000
     61 C     c      -0.000803     -0.002216      0.001597      0.000000
     62 C     c      -0.000429     -0.001264     -0.002418      0.000000
     63 C     c       0.000035     -0.001147     -0.000117      0.000000
     64 C     c       0.000528     -0.000273     -0.003813      0.000000
--------------------------------------------------------------------------------
  Maximum abs         0.006765      0.005169      0.008960      0.000000
--------------------------------------------------------------------------------



  Elastic Constant Matrix: (Units=GPa)

-------------------------------------------------------------------------------
  Indices      1         2         3         4         5         6    
-------------------------------------------------------------------------------
       1    557.7631  225.8871  178.9398    0.7730  -10.6222   20.7350
       2    225.8871  301.7837  176.0539  -24.0986  -12.8505    4.0286
       3    178.9398  176.0539  427.1637   -9.8604  -54.4690  -26.2608
       4      0.7730  -24.0986   -9.8604  115.3499  -11.3284  -26.5725
       5    -10.6222  -12.8505  -54.4690  -11.3284  128.5035   41.1627
       6     20.7350    4.0286  -26.2608  -26.5725   41.1627  108.9197
-------------------------------------------------------------------------------


  Elastic Compliance Matrix: (Units=1/GPa)

-------------------------------------------------------------------------------
  Indices      1         2         3         4         5         6    
-------------------------------------------------------------------------------
       1    0.002687 -0.001790 -0.000441 -0.000590  0.000031 -0.000707
       2   -0.001790  0.005646 -0.001571  0.001058 -0.000182  0.000080
       3   -0.000441 -0.001571  0.003349  0.000203  0.001051  0.000602
       4   -0.000590  0.001058  0.000203  0.009475  0.000226  0.002348
       5    0.000031 -0.000182  0.001051  0.000226  0.009253 -0.003187
       6   -0.000707  0.000080  0.000602  0.002348 -0.003187  0.011235
-------------------------------------------------------------------------------

  Mechanical properties :

-------------------------------------------------------------------------------
  Convention :                    Reuss         Voigt         Hill
-------------------------------------------------------------------------------
  Bulk  Modulus (GPa)     =     245.24016     272.05244     258.64630
  Shear Modulus (GPa)     =      98.79974     117.60994     108.20484
-------------------------------------------------------------------------------
  Velocity S-wave (km/s)  =       5.84702       6.37938       6.11899
  Velocity P-wave (km/s)  =      11.42120      12.18196      11.80771
-------------------------------------------------------------------------------
  Compressibility (1/GPa) =    0.00407764
-------------------------------------------------------------------------------
  Stress axis :                     x             y             z
-------------------------------------------------------------------------------
  Youngs Moduli (GPa)     =     372.14570     177.12355     298.61915
-------------------------------------------------------------------------------
  Poissons Ratio (x)      =                     0.31713       0.13165
  Poissons Ratio (y)      =       0.66632                     0.46903
  Poissons Ratio (z)      =       0.16407       0.27820
-------------------------------------------------------------------------------


  Piezoelectric Strain Matrix: (Units=C/m**2)

-------------------------------------------------------------------------------
  Indices      1         2         3         4         5         6    
-------------------------------------------------------------------------------
       x    -0.00000  -0.00000  -0.00000  -0.00000  -0.00000  -0.00000
       y    -0.00000  -0.00000  -0.00000  -0.00000  -0.00000  -0.00000
       z    -0.00000  -0.00000  -0.00000  -0.00000  -0.00000  -0.00000
-------------------------------------------------------------------------------


  Piezoelectric Stress Matrix: (Units=10**-11 C/N)

-------------------------------------------------------------------------------
  Indices      1         2         3         4         5         6    
-------------------------------------------------------------------------------
       x     0.00000   0.00000   0.00000   0.00000   0.00000   0.00000
       y     0.00000   0.00000   0.00000   0.00000   0.00000   0.00000
       z     0.00000   0.00000   0.00000   0.00000   0.00000   0.00000
-------------------------------------------------------------------------------


  Static dielectric constant tensor : 

-------------------------------------------------------------------------------
              x         y         z
-------------------------------------------------------------------------------
       x     1.00000   0.00000   0.00000
       y     0.00000   1.00000   0.00000
       z     0.00000   0.00000   1.00000
--------------------------------------------------------------------------------

  Static refractive indices : 

-------------------------------------------------------------------------------
    1 =    1.00000      2 =    1.00000      3 =    1.00000
-------------------------------------------------------------------------------


  Phonon Calculation : 

  Number of k points for this configuration =        1

--------------------------------------------------------------------------------
  K point      1 =   0.000000  0.000000  0.000000  Weight =    1.000
--------------------------------------------------------------------------------

  Frequencies (cm-1) [NB: Negative implies an imaginary mode]:

   -0.00   -0.00    0.00  135.35  158.20  178.69  209.96  229.14  231.56
  246.69  253.33  270.07  273.26  281.85  296.49  306.17  310.46  316.95
  323.18  325.87  335.70  346.77  358.41  364.56  367.05  380.66  385.43
  395.10  396.28  413.64  416.52  422.21  430.39  435.01  441.27  457.65
  459.74  466.83  477.95  479.06  493.14  495.80  506.44  511.87  518.77
  529.83  534.28  541.28  547.21  552.90  559.13  567.62  580.01  594.28
  599.68  603.34  611.97  618.12  623.69  631.07  635.56  646.23  650.95
  656.00  660.61  665.35  665.65  676.22  681.90  700.83  707.56  717.14
  722.33  736.80  743.97  745.66  752.16  762.47  776.69  777.63  784.31
  792.83  803.38  808.49  810.89  824.26  837.45  842.80  847.70  859.39
  871.45  880.09  882.08  891.00  897.47  916.02  919.70  936.22  939.69
  941.94  954.75  959.91  965.47  991.06  993.12 1003.45 1007.33 1013.08
 1015.55 1021.46 1030.63 1035.86 1042.26 1049.35 1056.21 1066.46 1069.30
 1087.19 1093.04 1099.88 1109.79 1115.46 1116.44 1128.34 1133.41 1147.11
 1158.76 1172.65 1174.22 1176.87 1190.49 1196.01 1201.21 1213.40 1223.45
 1241.31 1242.98 1253.82 1264.86 1278.02 1292.83 1301.16 1307.59 1318.18
 1329.10 1345.26 1354.58 1372.58 1376.43 1381.73 1388.80 1396.54 1408.48
 1421.38 1426.45 1429.90 1444.18 1466.73 1490.59 1492.65 1502.53 1537.05
 1548.04 1558.56 1567.09 1575.10 1581.29 1598.16 1618.98 1629.18 1638.09
 1643.21 1647.07 1750.62 1764.41 1784.23 1798.14 1838.63 1887.32 1932.86
 1948.61 2004.63 2005.23 2025.18 2050.31 2230.22 2528.08 2545.25 2599.75
 2885.55 2947.94 3110.89


--------------------------------------------------------------------------------
  Phonon properties (per mole of unit cells): Temperature =      0.000 K
--------------------------------------------------------------------------------
  Zero point energy            =       11.746840 eV
--------------------------------------------------------------------------------

  Phonon density of states : 

--------------------------------------------------------------------------------
 Frequency (cm-1) Density of States                                             
--------------------------------------------------------------------------------
    0.00000 |*******                                                       0.005
   48.60764 |                                                              0.000
   97.21527 |*******                                                       0.005
  145.82291 |***************                                               0.011
  194.43055 |**********************                                        0.016
  243.03818 |*************************************                         0.026
  291.64582 |****************************************************          0.037
  340.25346 |*********************************************                 0.032
  388.86109 |****************************************************          0.037
  437.46873 |*********************************************                 0.032
  486.07637 |****************************************************          0.037
  534.68401 |*********************************************                 0.032
  583.29164 |****************************************************          0.037
  631.89928 |************************************************************  0.042
  680.50692 |*************************************                         0.026
  729.11455 |****************************************************          0.037
  777.72219 |*********************************************                 0.032
  826.32983 |*************************************                         0.026
  874.93746 |*********************************************                 0.032
  923.54510 |*********************************************                 0.032
  972.15274 |*********************************************                 0.032
 1020.76037 |************************************************************  0.042
 1069.36801 |*********************************************                 0.032
 1117.97565 |******************************                                0.021
 1166.58328 |****************************************************          0.037
 1215.19092 |******************************                                0.021
 1263.79856 |*************************************                         0.026
 1312.40620 |******************************                                0.021
 1361.01383 |*********************************************                 0.032
 1409.62147 |******************************                                0.021
 1458.22911 |******************************                                0.021
 1506.83674 |***************                                               0.011
 1555.44438 |*************************************                         0.026
 1604.05202 |*************************************                         0.026
 1652.65965 |                                                              0.000
 1701.26729 |                                                              0.000
 1749.87493 |******************************                                0.021
 1798.48256 |*******                                                       0.005
 1847.09020 |*******                                                       0.005
 1895.69784 |*******                                                       0.005
 1944.30547 |*******                                                       0.005
 1992.91311 |**********************                                        0.016
 2041.52075 |*******                                                       0.005
 2090.12839 |                                                              0.000
 2138.73602 |                                                              0.000
 2187.34366 |*******                                                       0.005
 2235.95130 |                                                              0.000
 2284.55893 |                                                              0.000
 2333.16657 |                                                              0.000
 2381.77421 |                                                              0.000
 2430.38184 |                                                              0.000
 2478.98948 |                                                              0.000
 2527.59712 |***************                                               0.011
 2576.20475 |*******                                                       0.005
 2624.81239 |                                                              0.000
 2673.42003 |                                                              0.000
 2722.02766 |                                                              0.000
 2770.63530 |                                                              0.000
 2819.24294 |                                                              0.000
 2867.85058 |*******                                                       0.005
 2916.45821 |*******                                                       0.005
 2965.06585 |                                                              0.000
 3013.67349 |                                                              0.000
 3062.28112 |*******                                                       0.005
--------------------------------------------------------------------------------



  Time to end of optimisation =       1.0494 seconds


  Peak dynamic memory used =       2.65 MB 


  Timing analysis for GULP :

--------------------------------------------------------------------------------
  Task / Subroutine                                          Time (Seconds)
--------------------------------------------------------------------------------
  Calculation of real space energy and derivatives                0.0004
  Calculation of Brenner energy and derivatives                   0.9666
  Calculation of phonons                                          0.2951
--------------------------------------------------------------------------------
  Total CPU time                                                  1.0496
--------------------------------------------------------------------------------


  CIF file written as opti.cif


  Job Finished at 19:26.56 29th July       2020                               

