********************************************************************************
*                       GENERAL UTILITY LATTICE PROGRAM                        *
*                                 Julian Gale                                  *
*                       Curtin Institute for Computation                       *
*                           Department of Chemistry                            *
*                    Curtin University, Western Australia                      *
********************************************************************************
* Version = 5.1.1 * Last modified =  21st January 2019                         *
********************************************************************************
*  single       - perform a single point run                                   *
*  phonon       - calculate phonons for final geometry                         *
********************************************************************************
* ASE calculation                                                              *
********************************************************************************


  Job Started  at 18:03.00 19th April      2021                               

  Number of CPUs =    12

  Host name      = p1                                      


  Total number of configurations input =      1

********************************************************************************
*  Input for Configuration =   1                                               *
********************************************************************************

  Formula = C512                                                        

  Number of irreducible atoms/shells =     512


  Total number atoms/shells =     512

  Dimensionality = 3               :  Bulk   



  Cartesian lattice vectors (Angstroms) :

       14.786361    0.000000    0.000000
        0.000000   14.786361    0.000000
        0.000000    0.000000   14.786361

  Cell parameters (Angstroms/Degrees):

  a =      14.7864    alpha =  90.0000
  b =      14.7864    beta  =  90.0000
  c =      14.7864    gamma =  90.0000

  Initial cell volume =        3232.837797 Angs**3

  Temperature of configuration =  0.000     K 

  Pressure of configuration =         0.000 GPa 

  Fractional coordinates of asymmetric unit :

--------------------------------------------------------------------------------
   No.  Atomic       x           y          z         Charge      Occupancy
        Label      (Frac)      (Frac)     (Frac)        (e)         (Frac)  
--------------------------------------------------------------------------------
      1 C     c    0.308751    0.396857    0.174292     0.00000    1.000000    
      2 C     c    0.924358    0.014678    0.698932     0.00000    1.000000    
      3 C     c    0.823331    0.279699    0.213940     0.00000    1.000000    
      4 C     c    0.335829    0.536529    0.053872     0.00000    1.000000    
      5 C     c    0.695940    0.971992    0.886902     0.00000    1.000000    
      6 C     c    0.271061    0.308532    0.506600     0.00000    1.000000    
      7 C     c    0.108669    0.990119    0.318191     0.00000    1.000000    
      8 C     c    0.223837    0.965791    0.026299     0.00000    1.000000    
      9 C     c    0.870328    0.215999    0.875669     0.00000    1.000000    
     10 C     c    0.082131    0.901300    0.130329     0.00000    1.000000    
     11 C     c    0.075170    0.603420    0.951939     0.00000    1.000000    
     12 C     c    0.402409    0.282560    0.811122     0.00000    1.000000    
     13 C     c    0.522450    0.090837    0.116820     0.00000    1.000000    
     14 C     c    0.042940    0.488910    0.821238     0.00000    1.000000    
     15 C     c    0.082110    0.147159    0.410820     0.00000    1.000000    
     16 C     c    0.071799    0.553580    0.659768     0.00000    1.000000    
     17 C     c    0.884970    0.135248    0.408790     0.00000    1.000000    
     18 C     c    0.832691    0.459192    0.977921     0.00000    1.000000    
     19 C     c    0.604309    0.341120    0.145839     0.00000    1.000000    
     20 C     c    0.690111    0.878251    0.313651     0.00000    1.000000    
     21 C     c    0.930181    0.813968    0.307209     0.00000    1.000000    
     22 C     c    0.843830    0.490820    0.590500     0.00000    1.000000    
     23 C     c    0.531260    0.766158    0.033761     0.00000    1.000000    
     24 C     c    0.654279    0.785808    0.745071     0.00000    1.000000    
     25 C     c    0.813012    0.044889    0.275551     0.00000    1.000000    
     26 C     c    0.267281    0.038721    0.464501     0.00000    1.000000    
     27 C     c    0.866909    0.868068    0.533481     0.00000    1.000000    
     28 C     c    0.363680    0.516078    0.662941     0.00000    1.000000    
     29 C     c    0.442232    0.803389    0.896887     0.00000    1.000000    
     30 C     c    0.187550    0.015270    0.775040     0.00000    1.000000    
     31 C     c    0.866800    0.156691    0.968382     0.00000    1.000000    
     32 C     c    0.766988    0.739699    0.380799     0.00000    1.000000    
     33 C     c    0.995250    0.043512    0.619619     0.00000    1.000000    
     34 C     c    0.019361    0.174391    0.819720     0.00000    1.000000    
     35 C     c    0.806001    0.590450    0.751240     0.00000    1.000000    
     36 C     c    0.942500    0.074178    0.133430     0.00000    1.000000    
     37 C     c    0.213232    0.086820    0.640989     0.00000    1.000000    
     38 C     c    0.770101    0.842132    0.863151     0.00000    1.000000    
     39 C     c    0.539352    0.935732    0.163280     0.00000    1.000000    
     40 C     c    0.544809    0.088560    0.816270     0.00000    1.000000    
     41 C     c    0.588861    0.015188    0.889691     0.00000    1.000000    
     42 C     c    0.107371    0.109041    0.206799     0.00000    1.000000    
     43 C     c    0.270651    0.649731    0.296410     0.00000    1.000000    
     44 C     c    0.612248    0.471539    0.464419     0.00000    1.000000    
     45 C     c    0.134899    0.193430    0.473319     0.00000    1.000000    
     46 C     c    0.601914    0.303816    0.324459     0.00000    1.000000    
     47 C     c    0.970630    0.370949    0.284702     0.00000    1.000000    
     48 C     c    0.442201    0.480361    0.421411     0.00000    1.000000    
     49 C     c    0.785498    0.751640    0.064019     0.00000    1.000000    
     50 C     c    0.592701    0.458802    0.603729     0.00000    1.000000    
     51 C     c    0.096050    0.870081    0.882790     0.00000    1.000000    
     52 C     c    0.690804    0.355571    0.329063     0.00000    1.000000    
     53 C     c    0.702681    0.692330    0.310639     0.00000    1.000000    
     54 C     c    0.196670    0.904111    0.619978     0.00000    1.000000    
     55 C     c    0.716700    0.423132    0.836992     0.00000    1.000000    
     56 C     c    0.142149    0.451989    0.211202     0.00000    1.000000    
     57 C     c    0.111100    0.431809    0.977652     0.00000    1.000000    
     58 C     c    0.488779    0.612510    0.504011     0.00000    1.000000    
     59 C     c    0.756290    0.457701    0.202509     0.00000    1.000000    
     60 C     c    0.226361    0.187528    0.362481     0.00000    1.000000    
     61 C     c    0.159010    0.197230    0.174839     0.00000    1.000000    
     62 C     c    0.255152    0.972121    0.186859     0.00000    1.000000    
     63 C     c    0.532740    0.540249    0.440259     0.00000    1.000000    
     64 C     c    0.758465    0.289100    0.389389     0.00000    1.000000    
     65 C     c    0.851122    0.529804    0.830291     0.00000    1.000000    
     66 C     c    0.273321    0.305303    0.209540     0.00000    1.000000    
     67 C     c    0.069739    0.976098    0.637980     0.00000    1.000000    
     68 C     c    0.377039    0.387791    0.795651     0.00000    1.000000    
     69 C     c    0.276631    0.096842    0.380491     0.00000    1.000000    
     70 C     c    0.552020    0.200398    0.195059     0.00000    1.000000    
     71 C     c    0.258532    0.578168    0.908621     0.00000    1.000000    
     72 C     c    0.305239    0.171500    0.908170     0.00000    1.000000    
     73 C     c    0.370781    0.914459    0.008401     0.00000    1.000000    
     74 C     c    0.397202    0.528860    0.890001     0.00000    1.000000    
     75 C     c    0.863109    0.067738    0.627428     0.00000    1.000000    
     76 C     c    0.928398    0.493959    0.993309     0.00000    1.000000    
     77 C     c    0.631629    0.557539    0.890353     0.00000    1.000000    
     78 C     c    0.996169    0.790300    0.015191     0.00000    1.000000    
     79 C     c    0.557411    0.727061    0.622091     0.00000    1.000000    
     80 C     c    0.759330    0.218107    0.742151     0.00000    1.000000    
     81 C     c    0.179849    0.397650    0.058462     0.00000    1.000000    
     82 C     c    0.588329    0.475040    0.929869     0.00000    1.000000    
     83 C     c    0.700482    0.895360    0.130950     0.00000    1.000000    
     84 C     c    0.562659    0.709080    0.241669     0.00000    1.000000    
     85 C     c    0.914730    0.584269    0.894749     0.00000    1.000000    
     86 C     c    0.888710    0.310960    0.682761     0.00000    1.000000    
     87 C     c    0.461518    0.525174    0.230071     0.00000    1.000000    
     88 C     c    0.182980    0.915341    0.318880     0.00000    1.000000    
     89 C     c    0.821570    0.749328    0.220932     0.00000    1.000000    
     90 C     c    0.823939    0.366469    0.025221     0.00000    1.000000    
     91 C     c    0.766592    0.392869    0.112359     0.00000    1.000000    
     92 C     c    0.461490    0.734570    0.967661     0.00000    1.000000    
     93 C     c    0.617090    0.701331    0.022330     0.00000    1.000000    
     94 C     c    0.489431    0.605187    0.117799     0.00000    1.000000    
     95 C     c    0.376269    0.893599    0.608769     0.00000    1.000000    
     96 C     c    0.494059    0.075672    0.985398     0.00000    1.000000    
     97 C     c    0.175609    0.810061    0.026419     0.00000    1.000000    
     98 C     c    0.766238    0.461050    0.529110     0.00000    1.000000    
     99 C     c    0.395421    0.181032    0.279978     0.00000    1.000000    
    100 C     c    0.201889    0.922169    0.479178     0.00000    1.000000    
    101 C     c    0.396941    0.135947    0.672452     0.00000    1.000000    
    102 C     c    0.777240    0.093651    0.994701     0.00000    1.000000    
    103 C     c    0.481781    0.134329    0.894422     0.00000    1.000000    
    104 C     c    0.593181    0.935490    0.750250     0.00000    1.000000    
    105 C     c    0.763293    0.359730    0.549868     0.00000    1.000000    
    106 C     c    0.160701    0.006101    0.591222     0.00000    1.000000    
    107 C     c    0.748942    0.566160    0.086820     0.00000    1.000000    
    108 C     c    0.539161    0.333310    0.405490     0.00000    1.000000    
    109 C     c    0.920102    0.777992    0.845522     0.00000    1.000000    
    110 C     c    0.045589    0.907920    0.799541     0.00000    1.000000    
    111 C     c    0.167587    0.746359    0.608502     0.00000    1.000000    
    112 C     c    0.953692    0.959051    0.822490     0.00000    1.000000    
    113 C     c    0.377439    0.093188    0.338962     0.00000    1.000000    
    114 C     c    0.166370    0.718390    0.779019     0.00000    1.000000    
    115 C     c    0.866119    0.605360    0.668862     0.00000    1.000000    
    116 C     c    0.840219    0.210441    0.375258     0.00000    1.000000    
    117 C     c    0.119918    0.577482    0.488200     0.00000    1.000000    
    118 C     c    0.086940    0.809600    0.415929     0.00000    1.000000    
    119 C     c    0.296940    0.530180    0.151259     0.00000    1.000000    
    120 C     c    0.927030    0.361581    0.771579     0.00000    1.000000    
    121 C     c    0.857701    0.971382    0.533300     0.00000    1.000000    
    122 C     c    0.519240    0.240170    0.922821     0.00000    1.000000    
    123 C     c    0.489221    0.707309    0.458091     0.00000    1.000000    
    124 C     c    0.451419    0.795343    0.702641     0.00000    1.000000    
    125 C     c    0.816791    0.197812    0.133280     0.00000    1.000000    
    126 C     c    0.585060    0.915560    0.601759     0.00000    1.000000    
    127 C     c    0.334219    0.676668    0.747449     0.00000    1.000000    
    128 C     c    0.674611    0.318401    0.519170     0.00000    1.000000    
    129 C     c    0.215300    0.302421    0.292230     0.00000    1.000000    
    130 C     c    0.648050    0.720179    0.659538     0.00000    1.000000    
    131 C     c    0.385961    0.699940    0.027649     0.00000    1.000000    
    132 C     c    0.707411    0.458491    0.737010     0.00000    1.000000    
    133 C     c    0.007390    0.897039    0.200690     0.00000    1.000000    
    134 C     c    0.867278    0.865896    0.864522     0.00000    1.000000    
    135 C     c    0.875591    0.074662    0.779490     0.00000    1.000000    
    136 C     c    0.202901    0.584189    0.671089     0.00000    1.000000    
    137 C     c    0.975361    0.167812    0.087769     0.00000    1.000000    
    138 C     c    0.459218    0.971520    0.012921     0.00000    1.000000    
    139 C     c    0.184572    0.821141    0.260680     0.00000    1.000000    
    140 C     c    0.538550    0.419811    0.855811     0.00000    1.000000    
    141 C     c    0.472331    0.000622    0.117329     0.00000    1.000000    
    142 C     c    0.156040    0.614509    0.799388     0.00000    1.000000    
    143 C     c    0.690280    0.946900    0.781020     0.00000    1.000000    
    144 C     c    0.500771    0.152353    0.273300     0.00000    1.000000    
    145 C     c    0.263010    0.218991    0.157863     0.00000    1.000000    
    146 C     c    0.012621    0.295998    0.543451     0.00000    1.000000    
    147 C     c    0.194201    0.614100    0.349859     0.00000    1.000000    
    148 C     c    0.259199    0.071559    0.277698     0.00000    1.000000    
    149 C     c    0.089141    0.278191    0.170098     0.00000    1.000000    
    150 C     c    0.514533    0.535029    0.585568     0.00000    1.000000    
    151 C     c    0.018750    0.628750    0.312630     0.00000    1.000000    
    152 C     c    0.028800    0.575501    0.115759     0.00000    1.000000    
    153 C     c    0.711333    0.877791    0.950956     0.00000    1.000000    
    154 C     c    0.577400    0.586620    0.357040     0.00000    1.000000    
    155 C     c    0.360550    0.750152    0.293551     0.00000    1.000000    
    156 C     c    0.652610    0.725002    0.894111     0.00000    1.000000    
    157 C     c    0.423209    0.140889    0.040259     0.00000    1.000000    
    158 C     c    0.874887    0.344371    0.427361     0.00000    1.000000    
    159 C     c    0.254860    0.756589    0.305278     0.00000    1.000000    
    160 C     c    0.651600    0.910050    0.530331     0.00000    1.000000    
    161 C     c    0.146081    0.290139    0.852302     0.00000    1.000000    
    162 C     c    0.580130    0.376391    0.491681     0.00000    1.000000    
    163 C     c    0.751899    0.751728    0.910781     0.00000    1.000000    
    164 C     c    0.012919    0.864350    0.457542     0.00000    1.000000    
    165 C     c    0.889510    0.718307    0.432739     0.00000    1.000000    
    166 C     c    0.359661    0.619010    0.346927     0.00000    1.000000    
    167 C     c    0.313651    0.006801    0.997910     0.00000    1.000000    
    168 C     c    0.378810    0.260228    0.347491     0.00000    1.000000    
    169 C     c    0.507882    0.952521    0.910349     0.00000    1.000000    
    170 C     c    0.074830    0.274301    0.001930     0.00000    1.000000    
    171 C     c    0.704939    0.568340    0.724292     0.00000    1.000000    
    172 C     c    0.220599    0.448970    0.140957     0.00000    1.000000    
    173 C     c    0.700850    0.317359    0.146971     0.00000    1.000000    
    174 C     c    0.754640    0.845660    0.379300     0.00000    1.000000    
    175 C     c    0.948160    0.026601    0.524200     0.00000    1.000000    
    176 C     c    0.106079    0.676251    0.343581     0.00000    1.000000    
    177 C     c    0.394341    0.069667    0.593931     0.00000    1.000000    
    178 C     c    0.481793    0.856646    0.169811     0.00000    1.000000    
    179 C     c    0.802243    0.297400    0.959392     0.00000    1.000000    
    180 C     c    0.751139    0.610860    0.992049     0.00000    1.000000    
    181 C     c    0.264720    0.754212    0.762982     0.00000    1.000000    
    182 C     c    0.693371    0.534811    0.228552     0.00000    1.000000    
    183 C     c    0.975512    0.835981    0.762240     0.00000    1.000000    
    184 C     c    0.400690    0.960460    0.867931     0.00000    1.000000    
    185 C     c    0.017200    0.799989    0.249471     0.00000    1.000000    
    186 C     c    0.388757    0.991472    0.181130     0.00000    1.000000    
    187 C     c    0.993339    0.479171    0.662549     0.00000    1.000000    
    188 C     c    0.285298    0.374369    0.655369     0.00000    1.000000    
    189 C     c    0.995878    0.166989    0.256131     0.00000    1.000000    
    190 C     c    0.620117    0.834598    0.040954     0.00000    1.000000    
    191 C     c    0.138151    0.016980    0.014091     0.00000    1.000000    
    192 C     c    0.032961    0.642168    0.505260     0.00000    1.000000    
    193 C     c    0.669579    0.453646    0.372609     0.00000    1.000000    
    194 C     c    0.302999    0.396550    0.944370     0.00000    1.000000    
    195 C     c    0.771150    0.990930    0.728898     0.00000    1.000000    
    196 C     c    0.557648    0.008601    0.641190     0.00000    1.000000    
    197 C     c    0.841350    0.092970    0.174160     0.00000    1.000000    
    198 C     c    0.619131    0.818609    0.932819     0.00000    1.000000    
    199 C     c    0.441140    0.600835    0.278984     0.00000    1.000000    
    200 C     c    0.995151    0.630221    0.204030     0.00000    1.000000    
    201 C     c    0.238751    0.369621    0.417200     0.00000    1.000000    
    202 C     c    0.358627    0.715381    0.574468     0.00000    1.000000    
    203 C     c    0.474900    0.366880    0.227829     0.00000    1.000000    
    204 C     c    0.982370    0.322500    0.961391     0.00000    1.000000    
    205 C     c    0.659270    0.027650    0.229072     0.00000    1.000000    
    206 C     c    0.868759    0.764620    0.721210     0.00000    1.000000    
    207 C     c    0.483709    0.190210    0.659940     0.00000    1.000000    
    208 C     c    0.792449    0.354681    0.652192     0.00000    1.000000    
    209 C     c    0.853929    0.827744    0.434640     0.00000    1.000000    
    210 C     c    0.614679    0.507190    0.295780     0.00000    1.000000    
    211 C     c    0.915420    0.866699    0.138618     0.00000    1.000000    
    212 C     c    0.326240    0.088401    0.056882     0.00000    1.000000    
    213 C     c    0.412801    0.601521    0.048408     0.00000    1.000000    
    214 C     c    0.229870    0.663470    0.964470     0.00000    1.000000    
    215 C     c    0.193978    0.911312    0.894019     0.00000    1.000000    
    216 C     c    0.936191    0.917678    0.925741     0.00000    1.000000    
    217 C     c    0.232251    0.878079    0.077160     0.00000    1.000000    
    218 C     c    0.171070    0.416708    0.721051     0.00000    1.000000    
    219 C     c    0.057730    0.207250    0.326880     0.00000    1.000000    
    220 C     c    0.887321    0.211079    0.054128     0.00000    1.000000    
    221 C     c    0.519391    0.233351    0.440860     0.00000    1.000000    
    222 C     c    0.515790    0.007751    0.744471     0.00000    1.000000    
    223 C     c    0.712750    0.273400    0.928391     0.00000    1.000000    
    224 C     c    0.953432    0.294510    0.861109     0.00000    1.000000    
    225 C     c    0.424850    0.957070    0.766128     0.00000    1.000000    
    226 C     c    0.546841    0.135951    0.598981     0.00000    1.000000    
    227 C     c    0.654269    0.170261    0.188520     0.00000    1.000000    
    228 C     c    0.312928    0.504513    0.959360     0.00000    1.000000    
    229 C     c    0.317669    0.029441    0.896429     0.00000    1.000000    
    230 C     c    0.289479    0.841400    0.744609     0.00000    1.000000    
    231 C     c    0.697900    0.824639    0.527480     0.00000    1.000000    
    232 C     c    0.659808    0.038340    0.396450     0.00000    1.000000    
    233 C     c    0.834797    0.710041    0.807378     0.00000    1.000000    
    234 C     c    0.781881    0.484559    0.889367     0.00000    1.000000    
    235 C     c    0.649870    0.688581    0.790611     0.00000    1.000000    
    236 C     c    0.702148    0.144821    0.849221     0.00000    1.000000    
    237 C     c    0.046861    0.479620    0.166902     0.00000    1.000000    
    238 C     c    0.351739    0.989694    0.628610     0.00000    1.000000    
    239 C     c    0.701279    0.229211    0.462009     0.00000    1.000000    
    240 C     c    0.944019    0.703971    0.338319     0.00000    1.000000    
    241 C     c    0.436100    0.433600    0.867870     0.00000    1.000000    
    242 C     c    0.617560    0.555159    0.787618     0.00000    1.000000    
    243 C     c    0.279772    0.863179    0.571192     0.00000    1.000000    
    244 C     c    0.302058    0.565659    0.486569     0.00000    1.000000    
    245 C     c    0.501751    0.401188    0.572239     0.00000    1.000000    
    246 C     c    0.646158    0.212741    0.361710     0.00000    1.000000    
    247 C     c    0.382988    0.676597    0.226922     0.00000    1.000000    
    248 C     c    0.125592    0.760460    0.869610     0.00000    1.000000    
    249 C     c    0.786800    0.830261    0.590389     0.00000    1.000000    
    250 C     c    0.941209    0.769891    0.101079     0.00000    1.000000    
    251 C     c    0.771710    0.228341    0.847569     0.00000    1.000000    
    252 C     c    0.203850    0.232259    0.541902     0.00000    1.000000    
    253 C     c    0.782031    0.000990    0.614823     0.00000    1.000000    
    254 C     c    0.257081    0.403759    0.558619     0.00000    1.000000    
    255 C     c    0.003498    0.531041    0.914381     0.00000    1.000000    
    256 C     c    0.908647    0.309730    0.041210     0.00000    1.000000    
    257 C     c    0.131739    0.375026    0.404789     0.00000    1.000000    
    258 C     c    0.673138    0.076052    0.137469     0.00000    1.000000    
    259 C     c    0.876042    0.702292    0.635019     0.00000    1.000000    
    260 C     c    0.765720    0.086952    0.771976     0.00000    1.000000    
    261 C     c    0.022338    0.404150    0.103767     0.00000    1.000000    
    262 C     c    0.979360    0.479252    0.247119     0.00000    1.000000    
    263 C     c    0.565270    0.837190    0.773701     0.00000    1.000000    
    264 C     c    0.943544    0.556379    0.719060     0.00000    1.000000    
    265 C     c    0.963119    0.733088    0.933300     0.00000    1.000000    
    266 C     c    0.036630    0.128330    0.913641     0.00000    1.000000    
    267 C     c    0.025531    0.887979    0.962580     0.00000    1.000000    
    268 C     c    0.309220    0.936351    0.487969     0.00000    1.000000    
    269 C     c    0.243888    0.548420    0.800920     0.00000    1.000000    
    270 C     c    0.477959    0.919991    0.457769     0.00000    1.000000    
    271 C     c    0.712640    0.558452    0.398030     0.00000    1.000000    
    272 C     c    0.888940    0.033693    0.875977     0.00000    1.000000    
    273 C     c    0.474139    0.273288    0.729309     0.00000    1.000000    
    274 C     c    0.681269    0.596623    0.560002     0.00000    1.000000    
    275 C     c    0.153590    0.262738    0.630211     0.00000    1.000000    
    276 C     c    0.159000    0.489863    0.647590     0.00000    1.000000    
    277 C     c    0.850939    0.599029    0.129451     0.00000    1.000000    
    278 C     c    0.798231    0.397493    0.389796     0.00000    1.000000    
    279 C     c    0.552970    0.159761    0.367761     0.00000    1.000000    
    280 C     c    0.411069    0.373759    0.957480     0.00000    1.000000    
    281 C     c    0.795466    0.009049    0.931598     0.00000    1.000000    
    282 C     c    0.055569    0.695932    0.911139     0.00000    1.000000    
    283 C     c    0.503391    0.045958    0.280460     0.00000    1.000000    
    284 C     c    0.100542    0.158999    0.752662     0.00000    1.000000    
    285 C     c    0.249049    0.154597    0.040326     0.00000    1.000000    
    286 C     c    0.602201    0.287701    0.590501     0.00000    1.000000    
    287 C     c    0.272111    0.003272    0.670569     0.00000    1.000000    
    288 C     c    0.274051    0.961999    0.294151     0.00000    1.000000    
    289 C     c    0.599920    0.910170    0.329508     0.00000    1.000000    
    290 C     c    0.004170    0.068132    0.215539     0.00000    1.000000    
    291 C     c    0.943220    0.347510    0.128479     0.00000    1.000000    
    292 C     c    0.573531    0.977429    0.252851     0.00000    1.000000    
    293 C     c    0.408749    0.108593    0.441607     0.00000    1.000000    
    294 C     c    0.288409    0.626761    0.191001     0.00000    1.000000    
    295 C     c    0.859021    0.213240    0.700101     0.00000    1.000000    
    296 C     c    0.102400    0.706230    0.450849     0.00000    1.000000    
    297 C     c    0.211020    0.011250    0.873330     0.00000    1.000000    
    298 C     c    0.416769    0.397231    0.133421     0.00000    1.000000    
    299 C     c    0.385353    0.874918    0.713621     0.00000    1.000000    
    300 C     c    0.569389    0.354161    0.049601     0.00000    1.000000    
    301 C     c    0.802060    0.697382    0.981162     0.00000    1.000000    
    302 C     c    0.718738    0.748222    0.220712     0.00000    1.000000    
    303 C     c    0.092479    0.343050    0.601342     0.00000    1.000000    
    304 C     c    0.362220    0.211569    0.987491     0.00000    1.000000    
    305 C     c    0.523139    0.828460    0.622608     0.00000    1.000000    
    306 C     c    0.192590    0.648100    0.054989     0.00000    1.000000    
    307 C     c    0.760861    0.856731    0.046648     0.00000    1.000000    
    308 C     c    0.394378    0.842750    0.270123     0.00000    1.000000    
    309 C     c    0.713749    0.222090    0.110801     0.00000    1.000000    
    310 C     c    0.049941    0.650630    0.612262     0.00000    1.000000    
    311 C     c    0.657359    0.587370    0.144199     0.00000    1.000000    
    312 C     c    0.009860    0.979330    0.268832     0.00000    1.000000    
    313 C     c    0.934181    0.879272    0.386680     0.00000    1.000000    
    314 C     c    0.366290    0.922009    0.327000     0.00000    1.000000    
    315 C     c    0.745119    0.355459    0.240062     0.00000    1.000000    
    316 C     c    0.347110    0.525419    0.399209     0.00000    1.000000    
    317 C     c    0.452202    0.858310    0.548700     0.00000    1.000000    
    318 C     c    0.042982    0.354391    0.454669     0.00000    1.000000    
    319 C     c    0.789151    0.490023    0.431922     0.00000    1.000000    
    320 C     c    0.861891    0.039621    0.366691     0.00000    1.000000    
    321 C     c    0.701891    0.169218    0.286029     0.00000    1.000000    
    322 C     c    0.203824    0.167832    0.942368     0.00000    1.000000    
    323 C     c    0.331319    0.852479    0.086239     0.00000    1.000000    
    324 C     c    0.611269    0.929301    0.090309     0.00000    1.000000    
    325 C     c    0.745650    0.648938    0.824288     0.00000    1.000000    
    326 C     c    0.767242    0.064509    0.097819     0.00000    1.000000    
    327 C     c    0.161091    0.019379    0.487439     0.00000    1.000000    
    328 C     c    0.211450    0.719901    0.480061     0.00000    1.000000    
    329 C     c    0.403071    0.350111    0.307178     0.00000    1.000000    
    330 C     c    0.322238    0.746841    0.079312     0.00000    1.000000    
    331 C     c    0.683821    0.633121    0.647088     0.00000    1.000000    
    332 C     c    0.564789    0.553499    0.096360     0.00000    1.000000    
    333 C     c    0.490872    0.031018    0.464762     0.00000    1.000000    
    334 C     c    0.709649    0.066860    0.564659     0.00000    1.000000    
    335 C     c    0.954817    0.489743    0.403589     0.00000    1.000000    
    336 C     c    0.555049    0.218718    0.539570     0.00000    1.000000    
    337 C     c    0.251031    0.783211    0.406672     0.00000    1.000000    
    338 C     c    0.969501    0.829972    0.552690     0.00000    1.000000    
    339 C     c    0.900290    0.657161    0.972747     0.00000    1.000000    
    340 C     c    0.700572    0.639996    0.470369     0.00000    1.000000    
    341 C     c    0.662351    0.748262    0.476959     0.00000    1.000000    
    342 C     c    0.941762    0.442631    0.583131     0.00000    1.000000    
    343 C     c    0.477869    0.404289    0.357769     0.00000    1.000000    
    344 C     c    0.267060    0.185662    0.742062     0.00000    1.000000    
    345 C     c    0.965679    0.024471    0.041569     0.00000    1.000000    
    346 C     c    0.212473    0.313371    0.699569     0.00000    1.000000    
    347 C     c    0.150840    0.426948    0.563139     0.00000    1.000000    
    348 C     c    0.683918    0.754458    0.090191     0.00000    1.000000    
    349 C     c    0.449761    0.352513    0.649288     0.00000    1.000000    
    350 C     c    0.944688    0.978660    0.352979     0.00000    1.000000    
    351 C     c    0.104520    0.608640    0.051762     0.00000    1.000000    
    352 C     c    0.316899    0.200181    0.655329     0.00000    1.000000    
    353 C     c    0.368041    0.268570    0.516520     0.00000    1.000000    
    354 C     c    0.163878    0.267680    0.948050     0.00000    1.000000    
    355 C     c    0.573620    0.756661    0.417850     0.00000    1.000000    
    356 C     c    0.724111    0.302248    0.702381     0.00000    1.000000    
    357 C     c    0.733101    0.849781    0.764158     0.00000    1.000000    
    358 C     c    0.569052    0.066959    0.406779     0.00000    1.000000    
    359 C     c    0.374451    0.412350    0.695431     0.00000    1.000000    
    360 C     c    0.488878    0.055108    0.564648     0.00000    1.000000    
    361 C     c    0.550421    0.865140    0.399531     0.00000    1.000000    
    362 C     c    0.809898    0.847898    0.692351     0.00000    1.000000    
    363 C     c    0.974138    0.734518    0.598239     0.00000    1.000000    
    364 C     c    0.854070    0.320247    0.516842     0.00000    1.000000    
    365 C     c    0.644381    0.688821    0.169720     0.00000    1.000000    
    366 C     c    0.328341    0.485699    0.558600     0.00000    1.000000    
    367 C     c    0.605059    0.035349    0.073003     0.00000    1.000000    
    368 C     c    0.143088    0.670001    0.676888     0.00000    1.000000    
    369 C     c    0.262488    0.157100    0.580101     0.00000    1.000000    
    370 C     c    0.733791    0.465580    0.038129     0.00000    1.000000    
    371 C     c    0.848152    0.591901    0.309818     0.00000    1.000000    
    372 C     c    0.150630    0.564617    0.896510     0.00000    1.000000    
    373 C     c    0.131392    0.461752    0.881678     0.00000    1.000000    
    374 C     c    0.259360    0.848449    0.910311     0.00000    1.000000    
    375 C     c    0.140188    0.378680    0.290529     0.00000    1.000000    
    376 C     c    0.086310    0.192023    0.664077     0.00000    1.000000    
    377 C     c    0.252862    0.689201    0.118690     0.00000    1.000000    
    378 C     c    0.298071    0.579532    0.718231     0.00000    1.000000    
    379 C     c    0.053919    0.280840    0.804761     0.00000    1.000000    
    380 C     c    0.022102    0.525689    0.334360     0.00000    1.000000    
    381 C     c    0.959048    0.379979    0.388928     0.00000    1.000000    
    382 C     c    0.837662    0.700329    0.309281     0.00000    1.000000    
    383 C     c    0.265392    0.756499    0.566018     0.00000    1.000000    
    384 C     c    0.883841    0.969910    0.994593     0.00000    1.000000    
    385 C     c    0.315001    0.056938    0.152309     0.00000    1.000000    
    386 C     c    0.402911    0.258413    0.615359     0.00000    1.000000    
    387 C     c    0.363010    0.865982    0.913881     0.00000    1.000000    
    388 C     c    0.739188    0.595701    0.303231     0.00000    1.000000    
    389 C     c    0.240652    0.334731    0.001318     0.00000    1.000000    
    390 C     c    0.699400    0.994541    0.481060     0.00000    1.000000    
    391 C     c    0.054679    0.172198    0.018848     0.00000    1.000000    
    392 C     c    0.125251    0.832068    0.612781     0.00000    1.000000    
    393 C     c    0.478161    0.767660    0.800992     0.00000    1.000000    
    394 C     c    0.069966    0.574921    0.763272     0.00000    1.000000    
    395 C     c    0.802001    0.995170    0.447090     0.00000    1.000000    
    396 C     c    0.926810    0.626220    0.478820     0.00000    1.000000    
    397 C     c    0.008791    0.422609    0.000161     0.00000    1.000000    
    398 C     c    0.097372    0.334659    0.087060     0.00000    1.000000    
    399 C     c    0.191559    0.513620    0.337280     0.00000    1.000000    
    400 C     c    0.413582    0.608530    0.636302     0.00000    1.000000    
    401 C     c    0.349978    0.798722    0.427450     0.00000    1.000000    
    402 C     c    0.434016    0.474219    0.529109     0.00000    1.000000    
    403 C     c    0.476812    0.683290    0.178546     0.00000    1.000000    
    404 C     c    0.939250    0.129628    0.485221     0.00000    1.000000    
    405 C     c    0.420061    0.275100    0.924597     0.00000    1.000000    
    406 C     c    0.209190    0.450602    0.808712     0.00000    1.000000    
    407 C     c    0.930931    0.583179    0.055802     0.00000    1.000000    
    408 C     c    0.608741    0.071361    0.975917     0.00000    1.000000    
    409 C     c    0.698229    0.847128    0.221962     0.00000    1.000000    
    410 C     c    0.666871    0.220659    0.011129     0.00000    1.000000    
    411 C     c    0.981977    0.740679    0.708910     0.00000    1.000000    
    412 C     c    0.281209    0.276070    0.375902     0.00000    1.000000    
    413 C     c    0.902987    0.563140    0.225710     0.00000    1.000000    
    414 C     c    0.527511    0.457708    0.270472     0.00000    1.000000    
    415 C     c    0.026689    0.144568    0.611720     0.00000    1.000000    
    416 C     c    0.141999    0.084589    0.922527     0.00000    1.000000    
    417 C     c    0.142310    0.119770    0.052345     0.00000    1.000000    
    418 C     c    0.329749    0.105599    0.517829     0.00000    1.000000    
    419 C     c    0.757700    0.162369    0.536751     0.00000    1.000000    
    420 C     c    0.819850    0.950421    0.224972     0.00000    1.000000    
    421 C     c    0.460969    0.567730    0.961820     0.00000    1.000000    
    422 C     c    0.568591    0.313599    0.858521     0.00000    1.000000    
    423 C     c    0.003649    0.978709    0.446280     0.00000    1.000000    
    424 C     c    0.159612    0.059589    0.260681     0.00000    1.000000    
    425 C     c    0.099452    0.966151    0.737740     0.00000    1.000000    
    426 C     c    0.282770    0.386088    0.841408     0.00000    1.000000    
    427 C     c    0.496970    0.792104    0.256258     0.00000    1.000000    
    428 C     c    0.416460    0.770710    0.508221     0.00000    1.000000    
    429 C     c    0.525821    0.495341    0.013630     0.00000    1.000000    
    430 C     c    0.310700    0.230949    0.822741     0.00000    1.000000    
    431 C     c    0.576609    0.463201    0.771231     0.00000    1.000000    
    432 C     c    0.625938    0.314267    0.687912     0.00000    1.000000    
    433 C     c    0.601119    0.643929    0.935549     0.00000    1.000000    
    434 C     c    0.875041    0.551359    0.407590     0.00000    1.000000    
    435 C     c    0.572922    0.266071    0.765978     0.00000    1.000000    
    436 C     c    0.917431    0.646535    0.816112     0.00000    1.000000    
    437 C     c    0.836861    0.158921    0.610110     0.00000    1.000000    
    438 C     c    0.683411    0.137199    0.715962     0.00000    1.000000    
    439 C     c    0.600700    0.686109    0.335830     0.00000    1.000000    
    440 C     c    0.608080    0.166011    0.786599     0.00000    1.000000    
    441 C     c    0.712469    0.067371    0.307410     0.00000    1.000000    
    442 C     c    0.510579    0.193970    0.090990     0.00000    1.000000    
    443 C     c    0.554931    0.301111    0.228531     0.00000    1.000000    
    444 C     c    0.996970    0.728762    0.179090     0.00000    1.000000    
    445 C     c    0.638801    0.090202    0.635241     0.00000    1.000000    
    446 C     c    0.910970    0.331041    0.209730     0.00000    1.000000    
    447 C     c    0.055251    0.961530    0.038459     0.00000    1.000000    
    448 C     c    0.502200    0.651070    0.919800     0.00000    1.000000    
    449 C     c    0.382699    0.110090    0.856449     0.00000    1.000000    
    450 C     c    0.313130    0.143401    0.213511     0.00000    1.000000    
    451 C     c    0.225309    0.919898    0.723021     0.00000    1.000000    
    452 C     c    0.380272    0.618882    0.532219     0.00000    1.000000    
    453 C     c    0.996001    0.453010    0.495852     0.00000    1.000000    
    454 C     c    0.490470    0.767573    0.123541     0.00000    1.000000    
    455 C     c    0.058991    0.309932    0.273161     0.00000    1.000000    
    456 C     c    0.621001    0.416701    0.690450     0.00000    1.000000    
    457 C     c    0.644531    0.411991    0.994451     0.00000    1.000000    
    458 C     c    0.406180    0.711439    0.387929     0.00000    1.000000    
    459 C     c    0.090753    0.819161    0.057631     0.00000    1.000000    
    460 C     c    0.288129    0.256171    0.054061     0.00000    1.000000    
    461 C     c    0.846009    0.942703    0.781606     0.00000    1.000000    
    462 C     c    0.398361    0.496337    0.167139     0.00000    1.000000    
    463 C     c    0.377860    0.899659    0.423960     0.00000    1.000000    
    464 C     c    0.996379    0.650209    0.751791     0.00000    1.000000    
    465 C     c    0.406219    0.008791    0.284821     0.00000    1.000000    
    466 C     c    0.564760    0.249251    0.018498     0.00000    1.000000    
    467 C     c    0.390779    0.609110    0.816739     0.00000    1.000000    
    468 C     c    0.731121    0.573811    0.902681     0.00000    1.000000    
    469 C     c    0.538348    0.855808    0.882628     0.00000    1.000000    
    470 C     c    0.852642    0.711889    0.131450     0.00000    1.000000    
    471 C     c    0.885023    0.463790    0.754201     0.00000    1.000000    
    472 C     c    0.277220    0.456401    0.358801     0.00000    1.000000    
    473 C     c    0.687251    0.132030    0.956409     0.00000    1.000000    
    474 C     c    0.927087    0.338201    0.586798     0.00000    1.000000    
    475 C     c    0.794472    0.210358    0.285698     0.00000    1.000000    
    476 C     c    0.082399    0.346111    0.716319     0.00000    1.000000    
    477 C     c    0.469511    0.400641    0.042020     0.00000    1.000000    
    478 C     c    0.209620    0.758799    0.937811     0.00000    1.000000    
    479 C     c    0.106269    0.478731    0.374698     0.00000    1.000000    
    480 C     c    0.991510    0.190692    0.536829     0.00000    1.000000    
    481 C     c    0.556409    0.633401    0.754160     0.00000    1.000000    
    482 C     c    0.483091    0.664872    0.817531     0.00000    1.000000    
    483 C     c    0.388380    0.101819    0.761101     0.00000    1.000000    
    484 C     c    0.917699    0.170728    0.785930     0.00000    1.000000    
    485 C     c    0.378809    0.885739    0.169748     0.00000    1.000000    
    486 C     c    0.182849    0.890720    0.172261     0.00000    1.000000    
    487 C     c    0.097978    0.781039    0.304900     0.00000    1.000000    
    488 C     c    0.660779    0.357508    0.898939     0.00000    1.000000    
    489 C     c    0.002449    0.218380    0.173131     0.00000    1.000000    
    490 C     c    0.012247    0.419410    0.747211     0.00000    1.000000    
    491 C     c    0.520708    0.628732    0.652661     0.00000    1.000000    
    492 C     c    0.673409    0.498428    0.547211     0.00000    1.000000    
    493 C     c    0.802582    0.729471    0.572441     0.00000    1.000000    
    494 C     c    0.190738    0.113820    0.743190     0.00000    1.000000    
    495 C     c    0.852419    0.912558    0.069922     0.00000    1.000000    
    496 C     c    0.782291    0.962442    0.128118     0.00000    1.000000    
    497 C     c    0.861721    0.849101    0.233581     0.00000    1.000000    
    498 C     c    0.417248    0.220609    0.439220     0.00000    1.000000    
    499 C     c    0.213122    0.615620    0.458689     0.00000    1.000000    
    500 C     c    0.101240    0.475352    0.489604     0.00000    1.000000    
    501 C     c    0.788836    0.701171    0.477790     0.00000    1.000000    
    502 C     c    0.911931    0.900312    0.707629     0.00000    1.000000    
    503 C     c    0.323080    0.408039    0.280571     0.00000    1.000000    
    504 C     c    0.154909    0.209960    0.286300     0.00000    1.000000    
    505 C     c    0.946911    0.084098    0.951040     0.00000    1.000000    
    506 C     c    0.805990    0.453999    0.686158     0.00000    1.000000    
    507 C     c    0.397910    0.713289    0.673440     0.00000    1.000000    
    508 C     c    0.179840    0.858860    0.406711     0.00000    1.000000    
    509 C     c    0.043110    0.880590    0.606239     0.00000    1.000000    
    510 C     c    0.231300    0.301351    0.801890     0.00000    1.000000    
    511 C     c    0.872840    0.589510    0.561099     0.00000    1.000000    
    512 C     c    0.089070    0.037610    0.417460     0.00000    1.000000    
--------------------------------------------------------------------------------


  Brillouin zone sampling points :

--------------------------------------------------------------------------------
  Point number          x          y          z            Weight
--------------------------------------------------------------------------------
        1           0.500000   0.000000   0.500000     0.00714286
        2           0.473684   0.000000   0.500000     0.00714286
        3           0.447368   0.000000   0.500000     0.00714286
        4           0.421053   0.000000   0.500000     0.00714286
        5           0.394737   0.000000   0.500000     0.00714286
        6           0.368421   0.000000   0.500000     0.00714286
        7           0.342105   0.000000   0.500000     0.00714286
        8           0.315789   0.000000   0.500000     0.00714286
        9           0.289474   0.000000   0.500000     0.00714286
       10           0.263158   0.000000   0.500000     0.00714286
       11           0.236842   0.000000   0.500000     0.00714286
       12           0.210526   0.000000   0.500000     0.00714286
       13           0.184211   0.000000   0.500000     0.00714286
       14           0.157895   0.000000   0.500000     0.00714286
       15           0.131579   0.000000   0.500000     0.00714286
       16           0.105263   0.000000   0.500000     0.00714286
       17           0.078947   0.000000   0.500000     0.00714286
       18           0.052632   0.000000   0.500000     0.00714286
       19           0.026316   0.000000   0.500000     0.00714286
       20           0.000000   0.000000   0.500000     0.00714286
       21           0.000000   0.000000   0.500000     0.00714286
       22           0.000000   0.000000   0.473684     0.00714286
       23           0.000000   0.000000   0.447368     0.00714286
       24           0.000000   0.000000   0.421053     0.00714286
       25           0.000000   0.000000   0.394737     0.00714286
       26           0.000000   0.000000   0.368421     0.00714286
       27           0.000000   0.000000   0.342105     0.00714286
       28           0.000000   0.000000   0.315789     0.00714286
       29           0.000000   0.000000   0.289474     0.00714286
       30           0.000000   0.000000   0.263158     0.00714286
       31           0.000000   0.000000   0.236842     0.00714286
       32           0.000000   0.000000   0.210526     0.00714286
       33           0.000000   0.000000   0.184211     0.00714286
       34           0.000000   0.000000   0.157895     0.00714286
       35           0.000000   0.000000   0.131579     0.00714286
       36           0.000000   0.000000   0.105263     0.00714286
       37           0.000000   0.000000   0.078947     0.00714286
       38           0.000000   0.000000   0.052632     0.00714286
       39           0.000000   0.000000   0.026316     0.00714286
       40           0.000000   0.000000   0.000000     0.00714286
       41           0.000000   0.000000   0.000000     0.00714286
       42           0.026316   0.000000   0.000000     0.00714286
       43           0.052632   0.000000   0.000000     0.00714286
       44           0.078947   0.000000   0.000000     0.00714286
       45           0.105263   0.000000   0.000000     0.00714286
       46           0.131579   0.000000   0.000000     0.00714286
       47           0.157895   0.000000   0.000000     0.00714286
       48           0.184211   0.000000   0.000000     0.00714286
       49           0.210526   0.000000   0.000000     0.00714286
       50           0.236842   0.000000   0.000000     0.00714286
       51           0.263158   0.000000   0.000000     0.00714286
       52           0.289474   0.000000   0.000000     0.00714286
       53           0.315789   0.000000   0.000000     0.00714286
       54           0.342105   0.000000   0.000000     0.00714286
       55           0.368421   0.000000   0.000000     0.00714286
       56           0.394737   0.000000   0.000000     0.00714286
       57           0.421053   0.000000   0.000000     0.00714286
       58           0.447368   0.000000   0.000000     0.00714286
       59           0.473684   0.000000   0.000000     0.00714286
       60           0.500000   0.000000   0.000000     0.00714286
       61           0.500000   0.000000   0.000000     0.00714286
       62           0.500000   0.026316   0.000000     0.00714286
       63           0.500000   0.052632   0.000000     0.00714286
       64           0.500000   0.078947   0.000000     0.00714286
       65           0.500000   0.105263   0.000000     0.00714286
       66           0.500000   0.131579   0.000000     0.00714286
       67           0.500000   0.157895   0.000000     0.00714286
       68           0.500000   0.184211   0.000000     0.00714286
       69           0.500000   0.210526   0.000000     0.00714286
       70           0.500000   0.236842   0.000000     0.00714286
       71           0.500000   0.263158   0.000000     0.00714286
       72           0.500000   0.289474   0.000000     0.00714286
       73           0.500000   0.315789   0.000000     0.00714286
       74           0.500000   0.342105   0.000000     0.00714286
       75           0.500000   0.368421   0.000000     0.00714286
       76           0.500000   0.394737   0.000000     0.00714286
       77           0.500000   0.421053   0.000000     0.00714286
       78           0.500000   0.447368   0.000000     0.00714286
       79           0.500000   0.473684   0.000000     0.00714286
       80           0.500000   0.500000   0.000000     0.00714286
       81           0.500000   0.500000   0.000000     0.00714286
       82           0.500000   0.500000   0.026316     0.00714286
       83           0.500000   0.500000   0.052632     0.00714286
       84           0.500000   0.500000   0.078947     0.00714286
       85           0.500000   0.500000   0.105263     0.00714286
       86           0.500000   0.500000   0.131579     0.00714286
       87           0.500000   0.500000   0.157895     0.00714286
       88           0.500000   0.500000   0.184211     0.00714286
       89           0.500000   0.500000   0.210526     0.00714286
       90           0.500000   0.500000   0.236842     0.00714286
       91           0.500000   0.500000   0.263158     0.00714286
       92           0.500000   0.500000   0.289474     0.00714286
       93           0.500000   0.500000   0.315789     0.00714286
       94           0.500000   0.500000   0.342105     0.00714286
       95           0.500000   0.500000   0.368421     0.00714286
       96           0.500000   0.500000   0.394737     0.00714286
       97           0.500000   0.500000   0.421053     0.00714286
       98           0.500000   0.500000   0.447368     0.00714286
       99           0.500000   0.500000   0.473684     0.00714286
      100           0.500000   0.500000   0.500000     0.00714286
      101           0.500000   0.500000   0.500000     0.00714286
      102           0.473684   0.500000   0.500000     0.00714286
      103           0.447368   0.500000   0.500000     0.00714286
      104           0.421053   0.500000   0.500000     0.00714286
      105           0.394737   0.500000   0.500000     0.00714286
      106           0.368421   0.500000   0.500000     0.00714286
      107           0.342105   0.500000   0.500000     0.00714286
      108           0.315789   0.500000   0.500000     0.00714286
      109           0.289474   0.500000   0.500000     0.00714286
      110           0.263158   0.500000   0.500000     0.00714286
      111           0.236842   0.500000   0.500000     0.00714286
      112           0.210526   0.500000   0.500000     0.00714286
      113           0.184211   0.500000   0.500000     0.00714286
      114           0.157895   0.500000   0.500000     0.00714286
      115           0.131579   0.500000   0.500000     0.00714286
      116           0.105263   0.500000   0.500000     0.00714286
      117           0.078947   0.500000   0.500000     0.00714286
      118           0.052632   0.500000   0.500000     0.00714286
      119           0.026316   0.500000   0.500000     0.00714286
      120           0.000000   0.500000   0.500000     0.00714286
      121           0.000000   0.500000   0.500000     0.00714286
      122           0.000000   0.500000   0.473684     0.00714286
      123           0.000000   0.500000   0.447368     0.00714286
      124           0.000000   0.500000   0.421053     0.00714286
      125           0.000000   0.500000   0.394737     0.00714286
      126           0.000000   0.500000   0.368421     0.00714286
      127           0.000000   0.500000   0.342105     0.00714286
      128           0.000000   0.500000   0.315789     0.00714286
      129           0.000000   0.500000   0.289474     0.00714286
      130           0.000000   0.500000   0.263158     0.00714286
      131           0.000000   0.500000   0.236842     0.00714286
      132           0.000000   0.500000   0.210526     0.00714286
      133           0.000000   0.500000   0.184211     0.00714286
      134           0.000000   0.500000   0.157895     0.00714286
      135           0.000000   0.500000   0.131579     0.00714286
      136           0.000000   0.500000   0.105263     0.00714286
      137           0.000000   0.500000   0.078947     0.00714286
      138           0.000000   0.500000   0.052632     0.00714286
      139           0.000000   0.500000   0.026316     0.00714286
      140           0.000000   0.500000   0.000000     0.00714286
--------------------------------------------------------------------------------


********************************************************************************
*  General input information                                                   *
********************************************************************************

  Species output for all configurations : 

--------------------------------------------------------------------------------
  Species    Type    Atomic    Atomic    Charge       Radii (Angs)     Library
                     Number     Mass       (e)     Cova   Ionic  VDW   Symbol
--------------------------------------------------------------------------------
    C        Core        6      12.01   0.000000   0.770  0.000  1.530          
--------------------------------------------------------------------------------


  Lattice summation method               =    Ewald          (3-D)
                                         =    Parry          (2-D)
                                         =    Saunders et al (1-D)
  Accuracy factor for lattice sums       =   12.000


  Time limit = Infinity

  Maximum range for interatomic potentials =    100000.000000 Angstroms

  Brenner et al 2002 potential to be used with explicit splines for P


********************************************************************************
*  Output for configuration   1                                                *
********************************************************************************


  Components of energy : 

--------------------------------------------------------------------------------
  Interatomic potentials     =           0.00000000 eV    
  Brenner potentials         =       -3367.82848384 eV    
  Monopole - monopole (real) =           0.00000000 eV    
  Monopole - monopole (recip)=           0.00000000 eV    
  Monopole - monopole (total)=           0.00000000 eV    
--------------------------------------------------------------------------------
  Total lattice energy       =       -3367.82848384 eV    
--------------------------------------------------------------------------------
  Total lattice energy       =         -324943.9667 kJ/(mole unit cells)
--------------------------------------------------------------------------------


  Elastic Constant Matrix: (Units=GPa)

-------------------------------------------------------------------------------
  Indices      1         2         3         4         5         6    
-------------------------------------------------------------------------------
       1    518.3464  206.2525  204.9287  -17.1793    5.9277    4.7975
       2    206.2525  495.9052  229.6051  -17.6348   -0.1755   10.3226
       3    204.9287  229.6051  545.1878  -13.8932    8.2522    3.8031
       4    -17.1793  -17.6348  -13.8932  147.8353    2.9534   12.2655
       5      5.9277   -0.1755    8.2522    2.9534  150.3971  -10.7373
       6      4.7975   10.3226    3.8031   12.2655  -10.7373  150.7689
-------------------------------------------------------------------------------

  Elastic Constant Tensor Eigenvalues: (Units=GPa)

-------------------------------------------------------------------------------
     1 =   130.9165     2 =   151.7570     3 =   164.5474
     4 =   285.0763     5 =   327.1005     6 =   949.0430
-------------------------------------------------------------------------------


  Elastic Compliance Matrix: (Units=1/GPa)

-------------------------------------------------------------------------------
  Indices      1         2         3         4         5         6    
-------------------------------------------------------------------------------
       1    0.002471 -0.000738 -0.000613  0.000145 -0.000070 -0.000029
       2   -0.000738  0.002736 -0.000870  0.000170  0.000066 -0.000151
       3   -0.000613 -0.000870  0.002434  0.000055 -0.000111  0.000005
       4    0.000145  0.000170  0.000055  0.006859 -0.000185 -0.000589
       5   -0.000070  0.000066 -0.000111 -0.000185  0.006697  0.000493
       6   -0.000029 -0.000151  0.000005 -0.000589  0.000493  0.006727
-------------------------------------------------------------------------------

  Mechanical properties :

-------------------------------------------------------------------------------
  Convention :                    Reuss         Voigt         Hill
-------------------------------------------------------------------------------
  Bulk  Modulus (GPa)     =     312.68467     315.66799     314.17633
  Shear Modulus (GPa)     =     149.55308     151.04380     150.29844
-------------------------------------------------------------------------------
  Velocity S-wave (km/s)  =       6.88106       6.91527       6.89818
  Velocity P-wave (km/s)  =      12.73298      12.79463      12.76384
-------------------------------------------------------------------------------
  Compressibility (1/GPa) =    0.00319811
-------------------------------------------------------------------------------
  Stress axis :                     x             y             z
-------------------------------------------------------------------------------
  Youngs Moduli (GPa)     =     404.66250     365.53886     410.80747
-------------------------------------------------------------------------------
  Poissons Ratio (x)      =                     0.26984       0.25184
  Poissons Ratio (y)      =       0.29872                     0.35751
  Poissons Ratio (z)      =       0.24807       0.31811
-------------------------------------------------------------------------------


  Piezoelectric Strain Matrix: (Units=C/m**2)

-------------------------------------------------------------------------------
  Indices      1         2         3         4         5         6    
-------------------------------------------------------------------------------
       x    -0.00000  -0.00000  -0.00000  -0.00000  -0.00000  -0.00000
       y    -0.00000  -0.00000  -0.00000  -0.00000  -0.00000  -0.00000
       z    -0.00000  -0.00000  -0.00000  -0.00000  -0.00000  -0.00000
-------------------------------------------------------------------------------


  Piezoelectric Stress Matrix: (Units=10**-11 C/N)

-------------------------------------------------------------------------------
  Indices      1         2         3         4         5         6    
-------------------------------------------------------------------------------
       x     0.00000   0.00000   0.00000   0.00000   0.00000   0.00000
       y     0.00000   0.00000   0.00000   0.00000   0.00000   0.00000
       z     0.00000   0.00000   0.00000   0.00000   0.00000   0.00000
-------------------------------------------------------------------------------


  Static dielectric constant tensor : 

-------------------------------------------------------------------------------
              x         y         z
-------------------------------------------------------------------------------
       x     1.00000   0.00000   0.00000
       y     0.00000   1.00000   0.00000
       z     0.00000   0.00000   1.00000
--------------------------------------------------------------------------------

  Static refractive indices : 

-------------------------------------------------------------------------------
    1 =    1.00000      2 =    1.00000      3 =    1.00000
-------------------------------------------------------------------------------


  Phonon Calculation : 

  K direction for n-a correction at gamma =  1.00000  1.00000  1.00000

  Number of k points for this configuration =      140

--------------------------------------------------------------------------------
  K point      1 =   0.500000  0.000000  0.500000  Weight =    0.007
--------------------------------------------------------------------------------

  Frequencies (cm-1) [NB: Negative implies an imaginary mode]:

   79.32   84.01   94.76   98.15  101.04  107.05  108.34  116.40  120.22
  125.01  131.11  132.70  136.15  146.20  152.38  152.89  155.07  160.31
  162.40  165.04  168.02  170.16  173.41  174.92  178.58  179.93  183.94
  184.94  187.52  188.55  189.65  192.15  193.35  195.93  197.47  199.21
  201.08  203.57  206.90  209.12  211.24  211.81  213.39  216.36  218.02
  221.57  222.37  223.55  225.32  227.08  228.74  230.89  231.60  233.37
  235.12  237.18  240.09  241.66  243.19  245.11  247.10  249.40  250.39
  251.59  253.20  255.02  255.92  258.24  259.64  262.01  262.38  265.11
  267.17  268.49  268.68  269.20  271.36  273.12  273.99  276.07  277.87
  279.51  280.73  282.44  284.81  285.03  286.79  287.03  289.39  290.79
  292.73  293.32  294.24  295.07  296.34  297.13  298.70  299.53  301.63
  302.56  304.01  307.60  308.41  308.90  309.40  311.07  311.50  312.21
  313.74  316.23  317.77  318.83  319.92  321.56  322.00  323.12  324.27
  324.81  325.57  326.52  327.33  329.55  330.40  331.13  333.51  334.50
  334.91  337.62  338.05  338.57  340.54  341.16  342.73  344.99  346.01
  346.63  347.66  348.66  348.94  349.79  350.00  352.57  353.24  355.29
  355.88  356.88  357.72  358.93  359.90  360.86  362.52  362.99  363.10
  364.46  365.20  366.62  367.56  368.58  369.19  370.21  371.75  373.14
  374.18  374.63  375.90  377.04  377.98  378.92  380.23  380.78  381.50
  382.01  384.20  384.95  386.27  387.52  388.11  389.37  390.22  391.98
  392.63  393.03  393.41  395.02  395.44  396.44  397.86  398.56  399.93
  400.12  401.85  403.23  404.07  405.63  406.13  407.25  408.12  409.12
  409.98  410.34  412.38  412.82  413.13  414.72  415.88  416.78  418.35
  419.08  419.30  420.65  420.94  421.51  422.88  423.72  423.96  424.93
  427.10  428.02  429.04  429.92  430.48  431.92  432.62  433.93  434.03
  435.49  436.02  438.01  439.11  439.87  441.50  442.52  443.69  444.02
  444.70  446.03  446.54  447.52  448.39  448.97  450.33  450.46  451.70
  452.96  453.57  454.97  455.69  456.91  457.97  458.51  458.93  459.89
  462.18  463.51  463.96  464.43  466.05  466.51  467.48  467.82  469.54
  470.31  471.16  471.92  472.27  473.39  475.23  475.79  476.19  477.15
  479.00  479.98  481.10  482.15  482.63  484.19  485.07  486.31  487.03
  487.23  488.25  489.59  490.17  491.59  493.45  493.91  494.75  495.01
  496.72  496.92  498.50  499.11  500.11  501.14  501.59  502.89  503.31
  504.62  505.02  505.86  507.42  508.19  508.63  508.82  510.61  511.45
  512.31  513.35  514.74  516.96  517.24  518.09  519.67  519.77  520.71
  521.40  521.95  522.94  523.69  525.27  526.08  526.47  527.31  527.59
  528.73  529.66  530.86  531.43  532.55  533.08  533.64  534.58  535.45
  536.63  537.80  538.49  538.73  540.27  540.94  542.07  542.44  543.38
  544.64  545.15  546.29  547.29  548.35  549.16  549.78  550.57  550.92
  552.63  554.31  554.86  555.40  556.44  556.88  557.72  559.00  559.42
  560.54  560.62  562.56  563.65  563.77  564.37  565.66  566.81  567.08
  567.70  568.94  570.01  570.47  571.09  572.07  573.09  574.19  574.56
  575.26  577.32  578.18  579.07  579.80  580.58  581.82  582.55  582.89
  585.74  586.45  587.52  588.38  590.03  590.39  590.91  591.86  592.75
  593.32  594.13  594.30  596.34  596.63  597.44  598.55  598.76  600.35
  600.98  602.04  602.32  603.02  604.06  604.84  606.73  607.25  607.49
  608.39  609.32  609.84  611.62  612.50  612.89  613.24  614.12  615.18
  616.12  616.61  618.26  619.22  619.77  620.42  621.48  621.98  623.66
  624.68  624.80  625.20  627.05  627.51  628.21  628.51  630.37  630.97
  631.49  632.53  634.91  635.77  636.17  637.20  637.98  639.44  640.30
  640.74  641.20  641.84  642.35  643.87  644.90  645.76  646.97  647.97
  648.45  650.15  650.38  651.31  651.78  654.37  654.81  655.91  656.35
  657.16  657.65  659.41  659.70  660.86  661.39  662.50  663.10  663.70
  664.51  665.81  666.50  668.43  669.79  670.46  671.49  672.33  673.28
  673.79  674.28  675.40  676.42  678.43  679.04  680.51  680.93  681.79
  682.36  683.17  684.59  686.06  686.36  687.41  687.69  688.78  689.79
  691.11  692.42  693.26  694.05  695.02  695.54  697.02  697.73  698.08
  698.88  699.81  700.02  701.12  702.10  703.53  705.44  706.21  707.27
  707.56  708.86  709.24  709.78  710.88  712.38  713.41  714.58  715.40
  716.10  717.39  717.71  718.21  718.70  720.41  720.90  722.32  723.06
  723.76  725.23  726.02  726.76  727.53  727.86  730.03  731.06  731.18
  731.83  733.49  734.47  734.82  735.21  736.07  736.81  738.39  739.01
  739.64  740.94  742.28  742.41  744.17  744.97  746.59  747.03  748.83
  749.06  750.21  751.03  752.17  753.28  753.90  754.33  755.50  756.84
  757.21  758.40  759.89  760.74  761.30  761.38  763.14  764.83  765.41
  765.83  767.61  768.19  769.26  769.53  769.98  770.18  771.27  772.13
  773.68  773.81  775.72  776.35  778.12  779.56  779.73  780.47  782.09
  784.01  784.05  784.35  786.05  786.90  787.87  789.24  789.62  789.88
  791.50  792.00  792.91  793.72  793.86  794.35  794.68  796.59  797.43
  799.45  800.57  801.18  802.04  802.77  803.68  804.00  805.42  806.19
  807.52  808.17  809.05  809.75  810.36  811.17  812.12  813.21  814.82
  814.95  816.47  816.88  817.80  818.85  819.54  820.32  820.88  822.70
  823.08  824.37  825.13  825.74  826.57  827.24  829.09  829.65  830.20
  830.84  831.51  832.00  833.86  834.45  836.57  836.88  837.67  838.16
  839.64  841.15  841.26  842.19  843.33  843.62  844.63  845.24  846.56
  847.90  848.53  849.32  850.21  851.22  852.03  852.21  854.36  855.38
  856.39  857.34  857.61  857.82  858.90  860.19  860.95  861.71  862.13
  864.32  864.93  865.83  867.08  868.17  868.96  869.89  871.01  871.40
  872.26  872.84  873.56  875.24  876.08  876.43  877.82  878.20  879.64
  879.95  881.49  882.40  883.18  883.43  884.51  885.02  885.45  887.01
  887.91  888.78  890.64  890.72  892.41  893.55  893.83  895.13  896.24
  897.13  897.65  897.86  899.12  900.97  901.49  902.43  903.74  905.15
  905.90  907.25  907.73  907.90  909.48  910.17  910.65  911.94  912.59
  912.91  914.43  915.58  915.86  916.21  917.47  918.17  919.11  920.37
  920.98  921.77  922.49  923.37  925.00  925.60  926.05  927.98  928.23
  929.68  930.32  930.98  932.29  933.03  934.18  935.11  936.21  937.39
  938.45  939.53  940.31  941.62  942.28  943.57  943.97  944.97  945.86
  946.74  947.91  948.99  949.70  950.25  950.94  951.55  952.94  954.23
  955.25  955.70  957.25  957.53  958.58  959.05  959.55  960.64  961.00
  962.09  964.41  964.82  965.37  965.69  967.48  968.04  968.77  969.64
  970.22  970.72  972.03  973.46  973.90  975.58  975.67  976.89  977.89
  978.61  979.47  980.47  981.11  981.72  982.30  983.84  984.40  985.24
  985.69  986.74  987.62  987.87  989.26  989.61  990.28  992.33  993.30
  994.16  994.49  995.27  996.30  997.29  997.57  999.15  999.75 1000.72
 1001.78 1002.58 1002.89 1004.48 1004.91 1006.85 1007.79 1008.32 1009.81
 1010.18 1010.81 1011.93 1012.10 1013.14 1014.10 1014.99 1016.09 1017.10
 1017.27 1017.86 1018.88 1019.42 1021.06 1021.99 1022.34 1023.32 1025.36
 1026.03 1026.39 1027.37 1028.35 1028.88 1029.57 1029.80 1031.35 1032.10
 1033.52 1033.71 1034.39 1035.45 1036.33 1036.90 1037.55 1037.98 1039.12
 1040.14 1040.72 1041.55 1041.66 1043.00 1044.34 1045.38 1045.53 1047.25
 1047.50 1047.97 1049.39 1050.05 1050.18 1051.06 1051.77 1052.41 1053.75
 1053.88 1054.41 1055.84 1056.92 1057.43 1058.62 1059.53 1060.61 1061.12
 1062.90 1063.11 1064.39 1064.91 1065.33 1066.88 1067.61 1068.68 1069.93
 1070.54 1071.56 1072.57 1073.45 1074.40 1075.58 1075.81 1076.90 1077.65
 1078.71 1079.42 1080.15 1081.28 1081.74 1082.48 1083.71 1083.80 1085.07
 1085.89 1086.59 1087.92 1088.91 1089.60 1090.21 1090.77 1091.63 1092.16
 1092.40 1093.61 1094.98 1095.28 1095.53 1096.71 1097.59 1098.33 1099.30
 1100.37 1100.89 1102.34 1102.77 1103.60 1103.82 1104.63 1104.88 1105.89
 1106.55 1107.29 1107.84 1108.71 1109.74 1110.19 1111.00 1111.71 1112.32
 1113.03 1113.60 1114.97 1116.44 1117.47 1117.94 1118.22 1119.51 1119.76
 1120.88 1122.19 1123.32 1123.78 1123.94 1125.68 1127.35 1127.61 1128.54
 1129.28 1130.08 1131.43 1131.74 1132.23 1132.55 1133.99 1134.25 1135.43
 1136.09 1136.77 1137.03 1138.08 1138.87 1140.54 1140.67 1141.08 1142.68
 1142.98 1144.10 1144.66 1145.81 1146.10 1147.58 1148.16 1148.30 1149.89
 1150.68 1151.45 1152.01 1152.66 1152.95 1154.08 1154.64 1155.77 1156.12
 1156.95 1158.09 1158.83 1158.98 1160.75 1161.17 1161.44 1162.48 1163.14
 1164.73 1165.10 1166.48 1167.63 1167.92 1168.77 1169.45 1170.47 1171.02
 1172.43 1172.90 1173.76 1174.41 1175.31 1176.20 1176.58 1177.94 1178.74
 1179.66 1180.91 1181.72 1181.88 1183.30 1183.93 1185.16 1186.33 1186.94
 1187.58 1189.01 1190.05 1191.25 1192.74 1193.65 1195.24 1195.94 1197.04
 1197.64 1198.32 1198.76 1200.57 1201.91 1202.10 1202.65 1203.40 1204.47
 1204.85 1206.19 1206.53 1207.54 1207.78 1208.73 1210.05 1212.06 1212.90
 1213.07 1213.49 1214.35 1214.98 1215.50 1216.63 1217.31 1218.11 1219.29
 1220.47 1220.91 1221.40 1222.93 1223.42 1225.78 1226.05 1226.84 1227.87
 1228.34 1228.74 1230.32 1231.80 1232.63 1233.67 1234.18 1235.29 1236.09
 1236.67 1237.58 1238.07 1238.74 1240.12 1240.95 1242.27 1242.58 1245.26
 1245.70 1246.68 1247.83 1248.72 1249.07 1251.02 1251.98 1253.38 1254.60
 1256.73 1257.76 1258.16 1259.69 1260.10 1261.04 1261.79 1263.21 1264.06
 1264.41 1266.20 1268.06 1268.69 1269.79 1270.53 1271.27 1271.91 1273.51
 1274.98 1275.03 1276.12 1277.65 1278.68 1279.25 1281.21 1282.31 1283.09
 1285.40 1287.48 1287.96 1288.96 1289.26 1289.80 1290.61 1290.89 1291.78
 1292.03 1293.70 1295.06 1295.58 1296.80 1297.37 1297.93 1299.21 1300.18
 1300.46 1301.94 1302.89 1304.35 1304.87 1306.86 1307.46 1308.29 1308.98
 1309.85 1311.21 1312.27 1313.17 1314.62 1314.84 1316.59 1317.23 1318.06
 1320.21 1321.37 1322.37 1324.36 1325.72 1326.88 1327.60 1328.81 1329.82
 1330.80 1330.89 1333.17 1333.95 1335.01 1335.82 1336.35 1337.73 1338.44
 1339.75 1341.07 1343.19 1344.56 1345.15 1345.37 1348.20 1349.17 1349.96
 1350.49 1352.06 1352.17 1354.67 1355.41 1357.21 1357.30 1358.42 1359.88
 1360.55 1362.98 1363.62 1364.58 1365.71 1367.53 1367.64 1369.02 1370.13
 1371.13 1373.14 1374.42 1374.78 1375.46 1376.56 1378.69 1379.34 1381.71
 1381.95 1382.30 1383.56 1384.68 1385.81 1386.70 1387.64 1387.83 1389.69
 1390.22 1391.36 1392.43 1393.56 1394.07 1395.78 1396.69 1397.38 1398.09
 1399.29 1399.77 1401.30 1402.60 1403.04 1403.52 1404.85 1405.78 1408.13
 1412.33 1413.71 1414.84 1416.32 1417.59 1417.70 1420.30 1421.60 1424.12
 1426.62 1428.23 1429.17 1431.19 1433.24 1433.87 1437.35 1440.04 1441.18
 1443.42 1445.81 1446.65 1448.00 1449.97 1450.95 1451.33 1453.04 1454.54
 1456.25 1456.78 1457.75 1458.60 1460.75 1462.86 1465.51 1468.37 1470.17
 1472.03 1473.54 1474.68 1476.48 1478.43 1478.97 1482.33 1484.32 1486.37
 1487.70 1488.03 1490.62 1492.79 1495.93 1496.81 1498.90 1505.12 1507.21
 1508.33 1508.96 1509.58 1511.78 1514.03 1515.21 1517.23 1518.44 1519.82
 1521.20 1527.86 1527.97 1534.71 1536.11 1536.40 1537.57 1540.19 1553.92
 1556.06 1557.86 1562.45 1569.60 1570.82 1575.50 1585.37 1588.77 1589.62
 1592.08 1597.39 1601.14 1606.05 1612.62 1617.69 1622.09 1632.70 1634.75
 1635.99 1656.84 1661.95 1665.16 1669.80 1671.09 1674.22 1675.55 1684.50
 1691.69 1700.42 1706.32 1711.29 1714.70 1744.79 1754.63 1760.89 1761.99
 1770.90 1785.56 1790.77 1794.51 1806.48 1816.87 1820.18 1829.42 1831.70
 1832.46 1844.57 1847.59 1863.94 1875.23 1900.47 1903.35 1925.42 1940.34
 1950.46 1971.58 1972.47 1973.83 1975.05 1985.91 1990.99 1994.18 2009.69
 2019.09 2034.26 2046.24 2048.92 2048.96 2060.02 2070.67 2095.93 2099.62
 2119.10 2122.61 2125.43 2140.43 2159.90 2163.52 2172.85 2174.48 2185.20
 2188.86 2190.22 2197.97 2203.32 2220.38 2222.19 2226.63 2235.75 2251.68
 2279.31 2283.78 2374.49 2378.88 2379.31 2382.36 2389.11 2424.72 2431.70
 2455.29 2502.58 2503.41 2504.84 2513.54 2537.64 2547.01 2561.36 2592.81
 2615.51 2628.82 2629.00 2629.42 2635.71 2651.83 2655.47 2662.22 2666.77
 2678.50 2710.98 2738.61 2746.86 2747.74 2751.83 2755.42 2778.70 2791.48
 2831.37 2835.35 2848.24 2850.28 2854.53 2856.56 2862.17 2892.35 2894.96
 2899.80 2901.92 2948.17 2953.36 2966.60 2970.69 2974.50 2981.32 2989.44
 2998.55 3005.68 3013.02 3014.19 3021.30 3024.68 3030.89 3040.02 3041.48
 3044.91 3046.49 3051.45 3065.25 3096.55 3099.66 3150.45 3160.76 3237.27
 3254.72 3259.45 3261.71 3271.34 3296.91 3300.60 3309.96 3313.74 3316.53
 3404.00 3478.76 3483.97 3490.79 3548.63 3875.84


--------------------------------------------------------------------------------
  K point      2 =   0.473684  0.000000  0.500000  Weight =    0.007
--------------------------------------------------------------------------------

  Frequencies (cm-1) [NB: Negative implies an imaginary mode]:

   79.15   84.06   94.58   98.08  100.66  106.76  108.85  116.17  120.55
  125.18  131.22  132.80  136.22  146.21  152.31  152.80  155.19  160.26
  162.38  165.02  168.04  170.02  173.37  174.93  178.49  179.92  183.89
  184.81  187.47  188.61  189.70  192.20  193.36  195.86  197.52  199.18
  201.10  203.57  206.93  209.14  211.19  211.82  213.40  216.33  218.01
  221.50  222.40  223.63  225.24  227.12  228.60  230.82  231.72  233.55
  235.04  237.34  240.03  241.66  243.21  245.06  247.19  249.43  250.35
  251.60  253.19  255.00  255.95  258.31  259.66  261.99  262.38  265.10
  267.10  268.33  268.77  269.37  271.29  273.14  274.03  276.12  277.88
  279.47  280.78  282.44  284.70  285.15  286.68  287.20  289.35  290.82
  292.66  293.35  294.16  295.10  296.36  297.09  298.73  299.52  301.65
  302.54  304.07  307.55  308.41  308.83  309.47  310.88  311.51  312.39
  313.78  316.22  317.74  318.81  319.94  321.30  322.22  323.16  324.16
  324.71  325.74  326.52  327.38  329.58  330.41  331.15  333.44  334.58
  334.93  337.61  338.05  338.53  340.53  341.20  342.75  344.96  345.95
  346.58  347.64  348.63  348.94  349.83  350.10  352.55  353.31  355.26
  355.87  356.90  357.70  358.87  359.97  360.88  362.48  362.96  363.14
  364.46  365.15  366.73  367.53  368.56  369.20  370.25  371.80  373.12
  374.05  374.66  375.98  377.09  377.97  378.89  380.18  380.80  381.50
  382.07  384.16  384.97  386.29  387.50  388.14  389.32  390.20  391.98
  392.62  393.00  393.41  394.97  395.49  396.47  397.86  398.52  399.81
  400.30  401.83  403.23  404.10  405.57  406.12  407.19  408.11  409.12
  409.98  410.31  412.23  412.94  413.22  414.68  415.91  416.77  418.27
  419.02  419.39  420.62  420.96  421.49  422.91  423.75  423.97  424.94
  427.08  428.02  428.92  429.96  430.55  431.98  432.60  433.89  434.13
  435.50  436.03  438.00  439.10  439.87  441.48  442.47  443.59  444.06
  444.70  446.03  446.52  447.54  448.35  449.03  450.21  450.69  451.67
  452.97  453.57  454.93  455.71  456.83  458.08  458.41  458.93  459.87
  462.17  463.42  463.91  464.48  466.00  466.48  467.50  467.92  469.53
  470.32  471.10  471.83  472.38  473.39  475.19  475.80  476.25  477.13
  479.05  480.02  481.09  482.13  482.57  484.20  485.17  486.23  486.99
  487.32  488.31  489.58  490.16  491.55  493.44  493.89  494.72  495.00
  496.71  496.94  498.36  499.32  500.09  501.05  501.60  502.95  503.29
  504.52  505.09  505.82  507.42  508.15  508.56  509.00  510.61  511.38
  512.35  513.43  514.69  516.94  517.17  518.13  519.61  519.79  520.59
  521.50  521.94  522.97  523.70  525.16  526.04  526.59  527.30  527.60
  528.82  529.67  530.80  531.36  532.56  533.05  533.69  534.58  535.48
  536.63  537.72  538.49  538.76  540.25  540.96  541.99  542.49  543.42
  544.65  545.16  546.30  547.30  548.27  549.16  549.81  550.57  550.93
  552.66  554.26  554.88  555.45  556.31  556.94  557.75  559.03  559.36
  560.42  560.78  562.56  563.66  563.80  564.40  565.63  566.75  567.09
  567.74  568.91  569.93  570.55  571.08  572.10  573.13  574.16  574.54
  575.32  577.34  578.17  579.09  579.71  580.69  581.83  582.53  582.89
  585.75  586.44  587.51  588.42  589.84  590.42  590.74  592.04  592.67
  593.46  594.15  594.32  596.29  596.46  597.42  598.55  598.90  600.39
  600.95  602.09  602.33  603.00  604.07  604.84  606.68  607.21  607.46
  608.41  609.28  609.96  611.60  612.48  612.81  613.27  614.16  615.21
  616.14  616.62  618.08  619.27  619.80  620.40  621.48  622.08  623.69
  624.54  624.93  625.23  627.01  627.59  628.17  628.62  630.14  631.19
  631.49  632.53  634.90  635.74  636.20  637.14  637.96  639.39  640.34
  640.71  641.24  641.96  642.34  643.88  644.91  645.74  646.97  647.90
  648.48  650.16  650.40  651.31  651.82  654.26  654.86  655.86  656.38
  657.15  657.62  659.45  659.66  660.84  661.41  662.53  663.13  663.74
  664.46  665.82  666.58  668.39  669.75  670.47  671.46  672.31  673.28
  673.81  674.29  675.38  676.43  678.46  679.04  680.52  680.92  681.69
  682.47  683.19  684.58  685.91  686.44  687.42  687.64  688.79  689.83
  691.13  692.44  693.22  694.12  694.98  695.54  696.96  697.56  698.25
  698.94  699.80  700.01  701.19  702.14  703.53  705.42  706.11  707.14
  707.78  708.84  709.25  709.78  710.94  712.36  713.38  714.58  715.37
  716.13  717.40  717.74  718.22  718.68  720.31  720.96  722.34  723.02
  723.77  725.19  726.05  726.76  727.58  727.91  729.99  731.04  731.18
  731.83  733.44  734.46  734.75  735.22  736.11  736.90  738.39  739.04
  739.63  740.95  742.24  742.44  744.19  744.96  746.48  747.15  748.66
  749.19  750.18  751.06  752.12  753.27  753.95  754.33  755.49  756.81
  757.23  758.41  759.87  760.68  761.27  761.46  763.12  764.76  765.43
  765.81  767.48  768.25  769.20  769.40  770.12  770.27  771.30  772.19
  773.38  773.98  775.89  776.34  778.12  779.53  779.73  780.50  782.14
  783.81  784.03  784.48  786.04  786.83  787.95  789.14  789.68  789.90
  791.49  792.00  792.93  793.67  793.89  794.29  794.76  796.51  797.47
  799.43  800.53  801.18  802.06  802.75  803.65  804.02  805.38  806.10
  807.43  808.24  809.08  809.74  810.46  811.19  812.10  813.27  814.79
  815.04  816.44  816.80  817.79  818.80  819.63  820.35  820.91  822.66
  823.13  824.27  825.10  825.89  826.61  827.27  829.06  829.62  830.22
  830.84  831.50  832.05  833.83  834.46  836.56  836.94  837.67  838.15
  839.64  841.09  841.30  842.21  843.31  843.65  844.59  845.30  846.55
  847.89  848.45  849.40  850.21  851.21  851.93  852.27  854.36  855.35
  856.39  857.30  857.61  857.82  858.90  860.19  860.99  861.70  862.17
  864.25  864.97  865.84  867.10  868.14  868.93  869.87  871.06  871.33
  872.28  872.87  873.57  875.23  876.06  876.45  877.75  878.21  879.68
  879.95  881.49  882.38  883.14  883.43  884.51  885.03  885.47  887.00
  887.96  888.77  890.59  890.76  892.39  893.52  893.87  895.13  896.23
  897.07  897.69  897.89  899.15  900.95  901.50  902.43  903.74  905.12
  905.94  907.25  907.73  907.93  909.42  910.16  910.65  911.96  912.60
  912.91  914.41  915.55  915.90  916.19  917.50  918.19  919.05  920.38
[...]
 1274.27 1275.63 1276.69 1277.80 1278.71 1280.19 1281.70 1282.92 1284.71
 1285.39 1286.58 1287.24 1288.14 1288.30 1289.60 1290.24 1290.40 1292.84
 1293.38 1294.00 1294.13 1295.20 1296.79 1297.62 1297.75 1299.18 1299.47
 1300.72 1302.31 1303.11 1303.62 1305.01 1305.87 1307.02 1307.25 1309.56
 1310.05 1311.06 1311.58 1313.98 1314.37 1315.32 1316.72 1318.05 1318.26
 1320.14 1321.80 1322.77 1323.50 1326.02 1326.51 1327.14 1328.52 1329.92
 1330.52 1331.94 1333.32 1333.91 1334.69 1336.22 1336.92 1337.56 1338.31
 1339.67 1341.16 1342.42 1343.99 1344.65 1346.44 1347.96 1348.17 1349.54
 1350.13 1352.04 1352.49 1354.73 1355.43 1356.93 1357.52 1359.05 1359.69
 1361.17 1363.30 1364.50 1365.49 1366.57 1366.99 1367.34 1369.20 1369.46
 1370.55 1373.37 1374.10 1374.55 1375.57 1376.14 1379.18 1379.58 1380.82
 1381.75 1383.13 1384.11 1384.40 1384.93 1386.70 1388.04 1388.36 1389.08
 1390.64 1391.63 1392.70 1393.63 1394.63 1395.21 1396.10 1396.59 1398.54
 1399.02 1399.96 1401.12 1402.08 1403.04 1403.71 1404.02 1407.01 1407.88
 1412.56 1414.22 1414.37 1415.96 1417.84 1418.31 1420.25 1422.01 1424.37
 1426.31 1427.73 1429.36 1431.13 1432.76 1434.16 1437.42 1440.16 1441.18
 1443.57 1444.83 1446.55 1448.48 1450.60 1451.05 1451.86 1453.02 1453.94
 1455.58 1456.95 1457.94 1458.45 1460.48 1464.03 1464.38 1468.64 1470.20
 1471.93 1473.96 1474.33 1476.49 1478.41 1479.10 1482.38 1484.31 1486.28
 1487.61 1488.20 1490.37 1492.80 1495.99 1496.86 1498.82 1505.08 1507.20
 1508.41 1508.95 1509.64 1511.78 1514.07 1515.21 1517.22 1518.45 1519.83
 1521.20 1527.85 1528.03 1534.68 1536.13 1536.41 1537.57 1540.16 1553.93
 1556.06 1557.87 1562.43 1569.58 1570.84 1575.50 1585.37 1588.78 1589.62
 1592.08 1597.39 1601.15 1606.06 1612.62 1617.67 1622.09 1632.71 1634.75
 1635.99 1656.84 1661.95 1665.16 1669.76 1671.10 1674.25 1675.55 1684.50
 1691.70 1700.42 1706.31 1711.28 1714.70 1744.79 1754.63 1760.83 1762.04
 1770.90 1785.56 1790.77 1794.51 1806.48 1816.90 1820.18 1829.42 1831.69
 1832.46 1844.57 1847.58 1863.94 1875.22 1900.47 1903.35 1925.42 1940.34
 1950.46 1971.58 1972.47 1973.84 1975.05 1985.91 1990.99 1994.18 2009.69
 2019.08 2034.26 2046.24 2048.91 2048.96 2060.02 2070.67 2095.93 2099.62
 2119.10 2122.61 2125.43 2140.43 2159.90 2163.52 2172.85 2174.48 2185.20
 2188.86 2190.22 2197.97 2203.33 2220.38 2222.19 2226.63 2235.75 2251.68
 2279.31 2283.78 2374.49 2378.88 2379.31 2382.36 2389.11 2424.72 2431.70
 2455.29 2502.58 2503.41 2504.84 2513.54 2537.64 2547.01 2561.36 2592.81
 2615.51 2628.74 2629.08 2629.42 2635.71 2651.83 2655.47 2662.22 2666.77
 2678.50 2710.98 2738.61 2746.86 2747.74 2751.83 2755.42 2778.70 2791.48
 2831.37 2835.35 2848.24 2850.28 2854.53 2856.56 2862.17 2892.35 2894.96
 2899.80 2901.92 2948.17 2953.36 2966.60 2970.69 2974.50 2981.32 2989.44
 2998.55 3005.68 3013.02 3014.19 3021.30 3024.68 3030.89 3040.02 3041.48
 3044.91 3046.49 3051.45 3065.25 3096.55 3099.66 3150.45 3160.76 3237.27
 3254.72 3259.45 3261.71 3271.34 3296.91 3300.60 3309.96 3313.74 3316.53
 3404.00 3478.76 3483.97 3490.79 3548.63 3875.84


--------------------------------------------------------------------------------
  Phonon properties (per mole of unit cells): Temperature =      0.000 K
--------------------------------------------------------------------------------
  Zero point energy            =       97.101814 eV
--------------------------------------------------------------------------------

  Phonon dispersion curves : 

--------------------------------------------------------------------------------
  Section number =   1
--------------------------------------------------------------------------------
  Frequency (cm-1) Phonon dispersion                                            
--------------------------------------------------------------------------------
  3730.40   |  *  *  *  *  *  *  *  *  *  *  *  *  *  *  *  *  *  *  *  *
  3574.97   |                                                            
  3419.54   |  *  *  *  *  *  *  *  *  *  *  *  *  *  *  *  *  *  *  *  *
  3264.10   |  *  *  *  *  *  *  *  *  *  *  *  *  *  *  *  *  *  *  *  *
  3108.67   |  *  *  *  *  *  *  *  *  *  *  *  *  *  *  *  *  *  *  *  *
  2953.24   |  *  *  *  *  *  *  *  *  *  *  *  *  *  *  *  *  *  *  *  *
  2797.80   |  *  *  *  *  *  *  *  *  *  *  *  *  *  *  *  *  *  *  *  *
  2642.37   |  *  *  *  *  *  *  *  *  *  *  *  *  *  *  *  *  *  *  *  *
  2486.94   |  *  *  *  *  *  *  *  *  *  *  *  *  *  *  *  *  *  *  *  *
  2331.50   |  *  *  *  *  *  *  *  *  *  *  *  *  *  *  *  *  *  *  *  *
  2176.07   |  *  *  *  *  *  *  *  *  *  *  *  *  *  *  *  *  *  *  *  *
  2020.64   |  *  *  *  *  *  *  *  *  *  *  *  *  *  *  *  *  *  *  *  *
  1865.20   |  *  *  *  *  *  *  *  *  *  *  *  *  *  *  *  *  *  *  *  *
  1709.77   |  *  *  *  *  *  *  *  *  *  *  *  *  *  *  *  *  *  *  *  *
  1554.34   |  *  *  *  *  *  *  *  *  *  *  *  *  *  *  *  *  *  *  *  *
  1398.90   |  *  *  *  *  *  *  *  *  *  *  *  *  *  *  *  *  *  *  *  *
  1243.47   |  *  *  *  *  *  *  *  *  *  *  *  *  *  *  *  *  *  *  *  *
  1088.03   |  *  *  *  *  *  *  *  *  *  *  *  *  *  *  *  *  *  *  *  *
   932.60   |  *  *  *  *  *  *  *  *  *  *  *  *  *  *  *  *  *  *  *  *
   777.17   |  *  *  *  *  *  *  *  *  *  *  *  *  *  *  *  *  *  *  *  *
   621.73   |  *  *  *  *  *  *  *  *  *  *  *  *  *  *  *  *  *  *  *  *
   466.30   |  *  *  *  *  *  *  *  *  *  *  *  *  *  *  *  *  *  *  *  *
   310.87   |  *  *  *  *  *  *  *  *  *  *  *  *  *  *  *  *  *  *  *  *
   155.43   |  *  *  *  *  *  *  *  *  *  *  *  *  *  *  *  *  *  *  *  *
     0.00   |  *  *  *  *  *  *  *  *  *  *  *  *  *  *  *  *  *  *  *  *
--------------------------------------------------------------------------------
  Section number =   2
--------------------------------------------------------------------------------
  Frequency (cm-1) Phonon dispersion                                            
--------------------------------------------------------------------------------
  3730.40   |  *  *  *  *  *  *  *  *  *  *  *  *  *  *  *  *  *  *  *  *
  3574.97   |                                                            
  3419.54   |  *  *  *  *  *  *  *  *  *  *  *  *  *  *  *  *  *  *  *  *
  3264.10   |  *  *  *  *  *  *  *  *  *  *  *  *  *  *  *  *  *  *  *  *
  3108.67   |  *  *  *  *  *  *  *  *  *  *  *  *  *  *  *  *  *  *  *  *
  2953.24   |  *  *  *  *  *  *  *  *  *  *  *  *  *  *  *  *  *  *  *  *
  2797.80   |  *  *  *  *  *  *  *  *  *  *  *  *  *  *  *  *  *  *  *  *
  2642.37   |  *  *  *  *  *  *  *  *  *  *  *  *  *  *  *  *  *  *  *  *
  2486.94   |  *  *  *  *  *  *  *  *  *  *  *  *  *  *  *  *  *  *  *  *
  2331.50   |  *  *  *  *  *  *  *  *  *  *  *  *  *  *  *  *  *  *  *  *
  2176.07   |  *  *  *  *  *  *  *  *  *  *  *  *  *  *  *  *  *  *  *  *
  2020.64   |  *  *  *  *  *  *  *  *  *  *  *  *  *  *  *  *  *  *  *  *
  1865.20   |  *  *  *  *  *  *  *  *  *  *  *  *  *  *  *  *  *  *  *  *
  1709.77   |  *  *  *  *  *  *  *  *  *  *  *  *  *  *  *  *  *  *  *  *
  1554.34   |  *  *  *  *  *  *  *  *  *  *  *  *  *  *  *  *  *  *  *  *
  1398.90   |  *  *  *  *  *  *  *  *  *  *  *  *  *  *  *  *  *  *  *  *
  1243.47   |  *  *  *  *  *  *  *  *  *  *  *  *  *  *  *  *  *  *  *  *
  1088.03   |  *  *  *  *  *  *  *  *  *  *  *  *  *  *  *  *  *  *  *  *
   932.60   |  *  *  *  *  *  *  *  *  *  *  *  *  *  *  *  *  *  *  *  *
   777.17   |  *  *  *  *  *  *  *  *  *  *  *  *  *  *  *  *  *  *  *  *
   621.73   |  *  *  *  *  *  *  *  *  *  *  *  *  *  *  *  *  *  *  *  *
   466.30   |  *  *  *  *  *  *  *  *  *  *  *  *  *  *  *  *  *  *  *  *
   310.87   |  *  *  *  *  *  *  *  *  *  *  *  *  *  *  *  *  *  *  *  *
   155.43   |  *  *  *  *  *  *  *  *  *  *  *  *  *  *  *  *  *  *  *  *
     0.00   |  *  *  *  *  *  *  *  *  *  *  *  *  *  *  *  *  *  *  *  *
--------------------------------------------------------------------------------
  Section number =   3
--------------------------------------------------------------------------------
  Frequency (cm-1) Phonon dispersion                                            
--------------------------------------------------------------------------------
  3730.40   |  *  *  *  *  *  *  *  *  *  *  *  *  *  *  *  *  *  *  *  *
  3574.97   |                                                            
  3419.54   |  *  *  *  *  *  *  *  *  *  *  *  *  *  *  *  *  *  *  *  *
  3264.10   |  *  *  *  *  *  *  *  *  *  *  *  *  *  *  *  *  *  *  *  *
  3108.67   |  *  *  *  *  *  *  *  *  *  *  *  *  *  *  *  *  *  *  *  *
  2953.24   |  *  *  *  *  *  *  *  *  *  *  *  *  *  *  *  *  *  *  *  *
  2797.80   |  *  *  *  *  *  *  *  *  *  *  *  *  *  *  *  *  *  *  *  *
  2642.37   |  *  *  *  *  *  *  *  *  *  *  *  *  *  *  *  *  *  *  *  *
  2486.94   |  *  *  *  *  *  *  *  *  *  *  *  *  *  *  *  *  *  *  *  *
  2331.50   |  *  *  *  *  *  *  *  *  *  *  *  *  *  *  *  *  *  *  *  *
  2176.07   |  *  *  *  *  *  *  *  *  *  *  *  *  *  *  *  *  *  *  *  *
  2020.64   |  *  *  *  *  *  *  *  *  *  *  *  *  *  *  *  *  *  *  *  *
  1865.20   |  *  *  *  *  *  *  *  *  *  *  *  *  *  *  *  *  *  *  *  *
  1709.77   |  *  *  *  *  *  *  *  *  *  *  *  *  *  *  *  *  *  *  *  *
  1554.34   |  *  *  *  *  *  *  *  *  *  *  *  *  *  *  *  *  *  *  *  *
  1398.90   |  *  *  *  *  *  *  *  *  *  *  *  *  *  *  *  *  *  *  *  *
  1243.47   |  *  *  *  *  *  *  *  *  *  *  *  *  *  *  *  *  *  *  *  *
  1088.03   |  *  *  *  *  *  *  *  *  *  *  *  *  *  *  *  *  *  *  *  *
   932.60   |  *  *  *  *  *  *  *  *  *  *  *  *  *  *  *  *  *  *  *  *
   777.17   |  *  *  *  *  *  *  *  *  *  *  *  *  *  *  *  *  *  *  *  *
   621.73   |  *  *  *  *  *  *  *  *  *  *  *  *  *  *  *  *  *  *  *  *
   466.30   |  *  *  *  *  *  *  *  *  *  *  *  *  *  *  *  *  *  *  *  *
   310.87   |  *  *  *  *  *  *  *  *  *  *  *  *  *  *  *  *  *  *  *  *
   155.43   |  *  *  *  *  *  *  *  *  *  *  *  *  *  *  *  *  *  *  *  *
     0.00   |  *  *  *  *  *  *  *  *  *  *  *  *  *  *  *  *  *  *  *  *
--------------------------------------------------------------------------------
  Section number =   4
--------------------------------------------------------------------------------
  Frequency (cm-1) Phonon dispersion                                            
--------------------------------------------------------------------------------
  3730.40   |  *  *  *  *  *  *  *  *  *  *  *  *  *  *  *  *  *  *  *  *
  3574.97   |                                                            
  3419.54   |  *  *  *  *  *  *  *  *  *  *  *  *  *  *  *  *  *  *  *  *
  3264.10   |  *  *  *  *  *  *  *  *  *  *  *  *  *  *  *  *  *  *  *  *
  3108.67   |  *  *  *  *  *  *  *  *  *  *  *  *  *  *  *  *  *  *  *  *
  2953.24   |  *  *  *  *  *  *  *  *  *  *  *  *  *  *  *  *  *  *  *  *
  2797.80   |  *  *  *  *  *  *  *  *  *  *  *  *  *  *  *  *  *  *  *  *
  2642.37   |  *  *  *  *  *  *  *  *  *  *  *  *  *  *  *  *  *  *  *  *
  2486.94   |  *  *  *  *  *  *  *  *  *  *  *  *  *  *  *  *  *  *  *  *
  2331.50   |  *  *  *  *  *  *  *  *  *  *  *  *  *  *  *  *  *  *  *  *
  2176.07   |  *  *  *  *  *  *  *  *  *  *  *  *  *  *  *  *  *  *  *  *
  2020.64   |  *  *  *  *  *  *  *  *  *  *  *  *  *  *  *  *  *  *  *  *
  1865.20   |  *  *  *  *  *  *  *  *  *  *  *  *  *  *  *  *  *  *  *  *
  1709.77   |  *  *  *  *  *  *  *  *  *  *  *  *  *  *  *  *  *  *  *  *
  1554.34   |  *  *  *  *  *  *  *  *  *  *  *  *  *  *  *  *  *  *  *  *
  1398.90   |  *  *  *  *  *  *  *  *  *  *  *  *  *  *  *  *  *  *  *  *
  1243.47   |  *  *  *  *  *  *  *  *  *  *  *  *  *  *  *  *  *  *  *  *
  1088.03   |  *  *  *  *  *  *  *  *  *  *  *  *  *  *  *  *  *  *  *  *
   932.60   |  *  *  *  *  *  *  *  *  *  *  *  *  *  *  *  *  *  *  *  *
   777.17   |  *  *  *  *  *  *  *  *  *  *  *  *  *  *  *  *  *  *  *  *
   621.73   |  *  *  *  *  *  *  *  *  *  *  *  *  *  *  *  *  *  *  *  *
   466.30   |  *  *  *  *  *  *  *  *  *  *  *  *  *  *  *  *  *  *  *  *
   310.87   |  *  *  *  *  *  *  *  *  *  *  *  *  *  *  *  *  *  *  *  *
   155.43   |  *  *  *  *  *  *  *  *  *  *  *  *  *  *  *  *  *  *  *  *
     0.00   |  *  *  *  *  *  *  *  *  *  *  *  *  *  *  *  *  *  *  *  *
--------------------------------------------------------------------------------
  Section number =   5
--------------------------------------------------------------------------------
  Frequency (cm-1) Phonon dispersion                                            
--------------------------------------------------------------------------------
  3730.40   |  *  *  *  *  *  *  *  *  *  *  *  *  *  *  *  *  *  *  *  *
  3574.97   |                                                            
  3419.54   |  *  *  *  *  *  *  *  *  *  *  *  *  *  *  *  *  *  *  *  *
  3264.10   |  *  *  *  *  *  *  *  *  *  *  *  *  *  *  *  *  *  *  *  *
  3108.67   |  *  *  *  *  *  *  *  *  *  *  *  *  *  *  *  *  *  *  *  *
  2953.24   |  *  *  *  *  *  *  *  *  *  *  *  *  *  *  *  *  *  *  *  *
  2797.80   |  *  *  *  *  *  *  *  *  *  *  *  *  *  *  *  *  *  *  *  *
  2642.37   |  *  *  *  *  *  *  *  *  *  *  *  *  *  *  *  *  *  *  *  *
  2486.94   |  *  *  *  *  *  *  *  *  *  *  *  *  *  *  *  *  *  *  *  *
  2331.50   |  *  *  *  *  *  *  *  *  *  *  *  *  *  *  *  *  *  *  *  *
  2176.07   |  *  *  *  *  *  *  *  *  *  *  *  *  *  *  *  *  *  *  *  *
  2020.64   |  *  *  *  *  *  *  *  *  *  *  *  *  *  *  *  *  *  *  *  *
  1865.20   |  *  *  *  *  *  *  *  *  *  *  *  *  *  *  *  *  *  *  *  *
  1709.77   |  *  *  *  *  *  *  *  *  *  *  *  *  *  *  *  *  *  *  *  *
  1554.34   |  *  *  *  *  *  *  *  *  *  *  *  *  *  *  *  *  *  *  *  *
  1398.90   |  *  *  *  *  *  *  *  *  *  *  *  *  *  *  *  *  *  *  *  *
  1243.47   |  *  *  *  *  *  *  *  *  *  *  *  *  *  *  *  *  *  *  *  *
  1088.03   |  *  *  *  *  *  *  *  *  *  *  *  *  *  *  *  *  *  *  *  *
   932.60   |  *  *  *  *  *  *  *  *  *  *  *  *  *  *  *  *  *  *  *  *
   777.17   |  *  *  *  *  *  *  *  *  *  *  *  *  *  *  *  *  *  *  *  *
   621.73   |  *  *  *  *  *  *  *  *  *  *  *  *  *  *  *  *  *  *  *  *
   466.30   |  *  *  *  *  *  *  *  *  *  *  *  *  *  *  *  *  *  *  *  *
   310.87   |  *  *  *  *  *  *  *  *  *  *  *  *  *  *  *  *  *  *  *  *
   155.43   |  *  *  *  *  *  *  *  *  *  *  *  *  *  *  *  *  *  *  *  *
     0.00   |  *  *  *  *  *  *  *  *  *  *  *  *  *  *  *  *  *  *  *  *
--------------------------------------------------------------------------------
  Section number =   6
--------------------------------------------------------------------------------
  Frequency (cm-1) Phonon dispersion                                            
--------------------------------------------------------------------------------
  3730.40   |  *  *  *  *  *  *  *  *  *  *  *  *  *  *  *  *  *  *  *  *
  3574.97   |                                                            
  3419.54   |  *  *  *  *  *  *  *  *  *  *  *  *  *  *  *  *  *  *  *  *
  3264.10   |  *  *  *  *  *  *  *  *  *  *  *  *  *  *  *  *  *  *  *  *
  3108.67   |  *  *  *  *  *  *  *  *  *  *  *  *  *  *  *  *  *  *  *  *
  2953.24   |  *  *  *  *  *  *  *  *  *  *  *  *  *  *  *  *  *  *  *  *
  2797.80   |  *  *  *  *  *  *  *  *  *  *  *  *  *  *  *  *  *  *  *  *
  2642.37   |  *  *  *  *  *  *  *  *  *  *  *  *  *  *  *  *  *  *  *  *
  2486.94   |  *  *  *  *  *  *  *  *  *  *  *  *  *  *  *  *  *  *  *  *
  2331.50   |  *  *  *  *  *  *  *  *  *  *  *  *  *  *  *  *  *  *  *  *
  2176.07   |  *  *  *  *  *  *  *  *  *  *  *  *  *  *  *  *  *  *  *  *
  2020.64   |  *  *  *  *  *  *  *  *  *  *  *  *  *  *  *  *  *  *  *  *
  1865.20   |  *  *  *  *  *  *  *  *  *  *  *  *  *  *  *  *  *  *  *  *
  1709.77   |  *  *  *  *  *  *  *  *  *  *  *  *  *  *  *  *  *  *  *  *
  1554.34   |  *  *  *  *  *  *  *  *  *  *  *  *  *  *  *  *  *  *  *  *
  1398.90   |  *  *  *  *  *  *  *  *  *  *  *  *  *  *  *  *  *  *  *  *
  1243.47   |  *  *  *  *  *  *  *  *  *  *  *  *  *  *  *  *  *  *  *  *
  1088.03   |  *  *  *  *  *  *  *  *  *  *  *  *  *  *  *  *  *  *  *  *
   932.60   |  *  *  *  *  *  *  *  *  *  *  *  *  *  *  *  *  *  *  *  *
   777.17   |  *  *  *  *  *  *  *  *  *  *  *  *  *  *  *  *  *  *  *  *
   621.73   |  *  *  *  *  *  *  *  *  *  *  *  *  *  *  *  *  *  *  *  *
   466.30   |  *  *  *  *  *  *  *  *  *  *  *  *  *  *  *  *  *  *  *  *
   310.87   |  *  *  *  *  *  *  *  *  *  *  *  *  *  *  *  *  *  *  *  *
   155.43   |  *  *  *  *  *  *  *  *  *  *  *  *  *  *  *  *  *  *  *  *
     0.00   |  *  *  *  *  *  *  *  *  *  *  *  *  *  *  *  *  *  *  *  *
--------------------------------------------------------------------------------
  Section number =   7
--------------------------------------------------------------------------------
  Frequency (cm-1) Phonon dispersion                                            
--------------------------------------------------------------------------------
  3730.40   |  *  *  *  *  *  *  *  *  *  *  *  *  *  *  *  *  *  *  *  *
  3574.97   |                                                            
  3419.54   |  *  *  *  *  *  *  *  *  *  *  *  *  *  *  *  *  *  *  *  *
  3264.10   |  *  *  *  *  *  *  *  *  *  *  *  *  *  *  *  *  *  *  *  *
  3108.67   |  *  *  *  *  *  *  *  *  *  *  *  *  *  *  *  *  *  *  *  *
  2953.24   |  *  *  *  *  *  *  *  *  *  *  *  *  *  *  *  *  *  *  *  *
  2797.80   |  *  *  *  *  *  *  *  *  *  *  *  *  *  *  *  *  *  *  *  *
  2642.37   |  *  *  *  *  *  *  *  *  *  *  *  *  *  *  *  *  *  *  *  *
  2486.94   |  *  *  *  *  *  *  *  *  *  *  *  *  *  *  *  *  *  *  *  *
  2331.50   |  *  *  *  *  *  *  *  *  *  *  *  *  *  *  *  *  *  *  *  *
  2176.07   |  *  *  *  *  *  *  *  *  *  *  *  *  *  *  *  *  *  *  *  *
  2020.64   |  *  *  *  *  *  *  *  *  *  *  *  *  *  *  *  *  *  *  *  *
  1865.20   |  *  *  *  *  *  *  *  *  *  *  *  *  *  *  *  *  *  *  *  *
  1709.77   |  *  *  *  *  *  *  *  *  *  *  *  *  *  *  *  *  *  *  *  *
  1554.34   |  *  *  *  *  *  *  *  *  *  *  *  *  *  *  *  *  *  *  *  *
  1398.90   |  *  *  *  *  *  *  *  *  *  *  *  *  *  *  *  *  *  *  *  *
  1243.47   |  *  *  *  *  *  *  *  *  *  *  *  *  *  *  *  *  *  *  *  *
  1088.03   |  *  *  *  *  *  *  *  *  *  *  *  *  *  *  *  *  *  *  *  *
   932.60   |  *  *  *  *  *  *  *  *  *  *  *  *  *  *  *  *  *  *  *  *
   777.17   |  *  *  *  *  *  *  *  *  *  *  *  *  *  *  *  *  *  *  *  *
   621.73   |  *  *  *  *  *  *  *  *  *  *  *  *  *  *  *  *  *  *  *  *
   466.30   |  *  *  *  *  *  *  *  *  *  *  *  *  *  *  *  *  *  *  *  *
   310.87   |  *  *  *  *  *  *  *  *  *  *  *  *  *  *  *  *  *  *  *  *
   155.43   |  *  *  *  *  *  *  *  *  *  *  *  *  *  *  *  *  *  *  *  *
     0.00   |  *  *  *  *  *  *  *  *  *  *  *  *  *  *  *  *  *  *  *  *
--------------------------------------------------------------------------------


  Phonon dispersion written as 20sp2.disp                    

  Time to end of properties =     988.9908 seconds


  Peak dynamic memory used =       8.93 MB 


  Timing analysis for GULP :

--------------------------------------------------------------------------------
  Task / Subroutine                                          Time (Seconds)
--------------------------------------------------------------------------------
  Calculation of real space energy and derivatives                0.0696
  Calculation of Brenner energy and derivatives                 865.3669
  Calculation of phonons                                        980.9187
  Global summation overhead                                       0.8769
--------------------------------------------------------------------------------
  Total CPU time                                                988.9909
--------------------------------------------------------------------------------


  Job Finished at 18:19.29 19th April      2021                               

