********************************************************************************
*                       GENERAL UTILITY LATTICE PROGRAM                        *
*                                 Julian Gale                                  *
*                       Curtin Institute for Computation                       *
*                    School of Molecular and Life Sciences                     *
*                    Curtin University, Western Australia                      *
********************************************************************************
* Version = 5.2.0 * Last modified =  17th December 2019                        *
********************************************************************************
*  optimise     - perform optimisation run                                     *
*  conv         - constant volume calculation                                  *
*  isotropic    - only isotropic cell expansion to be allowed                  *
*  lbfgs        - use limited memory BFGS update                               *
********************************************************************************
* ASE calculation                                                              *
********************************************************************************


  Job Started  at 12:59.17 31st July       2020                               

  Number of CPUs =     1


  Total number of configurations input =      1

********************************************************************************
*  Input for Configuration =   1                                               *
********************************************************************************

  Formula = C64                                                         

  Number of irreducible atoms/shells =      64


  Total number atoms/shells =      64

  Dimensionality = 3               :  Bulk   



  Cartesian lattice vectors (Angstroms) :

        7.573591    0.000000    0.000000
        0.000000    7.573591    0.000000
        0.000000    0.000000    7.573591

  Cell parameters (Angstroms/Degrees):

  a =       7.5736    alpha =  90.0000
  b =       7.5736    beta  =  90.0000
  c =       7.5736    gamma =  90.0000

  Initial cell volume =         434.415732 Angs**3

  Temperature of configuration =   0.00     K 

  Pressure of configuration =         0.000 GPa 

  Fractional coordinates of asymmetric unit :

--------------------------------------------------------------------------------
   No.  Atomic       x           y          z         Charge      Occupancy
        Label      (Frac)      (Frac)     (Frac)        (e)         (Frac)  
--------------------------------------------------------------------------------
      1 C     c    0.476040    0.519880    0.065020     0.00000    1.000000    
      2 C     c    0.408230 *  0.739570 *  0.304320 *   0.00000    1.000000    
      3 C     c    0.283500 *  0.257800 *  0.903540 *   0.00000    1.000000    
      4 C     c    0.121740 *  0.015000 *  0.619820 *   0.00000    1.000000    
      5 C     c    0.961630 *  0.858120 *  0.881770 *   0.00000    1.000000    
      6 C     c    0.791230 *  0.484810 *  0.577650 *   0.00000    1.000000    
      7 C     c    0.611650 *  0.418220 *  0.674250 *   0.00000    1.000000    
      8 C     c    0.791740 *  0.717880 *  0.328190 *   0.00000    1.000000    
      9 C     c    0.885060 *  0.252990 *  0.323860 *   0.00000    1.000000    
     10 C     c    0.677960 *  0.164610 *  0.130500 *   0.00000    1.000000    
     11 C     c    0.876740 *  0.039070 *  0.362680 *   0.00000    1.000000    
     12 C     c    0.961970 *  0.955970 *  0.523330 *   0.00000    1.000000    
     13 C     c    0.510700 *  0.062220 *  0.141510 *   0.00000    1.000000    
     14 C     c    0.554090 *  0.985780 *  0.487090 *   0.00000    1.000000    
     15 C     c    0.461770 *  0.326030 *  0.993000 *   0.00000    1.000000    
     16 C     c    0.946890 *  0.357160 *  0.482980 *   0.00000    1.000000    
     17 C     c    0.154070 *  0.421170 *  0.828520 *   0.00000    1.000000    
     18 C     c    0.831770 *  0.738730 *  0.814560 *   0.00000    1.000000    
     19 C     c    0.920120 *  0.954310 *  0.037080 *   0.00000    1.000000    
     20 C     c    0.147610 *  0.916410 *  0.794660 *   0.00000    1.000000    
     21 C     c    0.868360 *  0.656000 *  0.654380 *   0.00000    1.000000    
     22 C     c    0.879940 *  0.132590 *  0.720880 *   0.00000    1.000000    
     23 C     c    0.499460 *  0.600100 *  0.409770 *   0.00000    1.000000    
     24 C     c    0.653150 *  0.710260 *  0.882190 *   0.00000    1.000000    
     25 C     c    0.638740 *  0.591320 *  0.028020 *   0.00000    1.000000    
     26 C     c    0.781760 *  0.980410 *  0.706670 *   0.00000    1.000000    
     27 C     c    0.472510 *  0.453970 *  0.572730 *   0.00000    1.000000    
     28 C     c    0.358710 *  0.639340 *  0.140240 *   0.00000    1.000000    
     29 C     c    0.589570 *  0.956860 *  0.680290 *   0.00000    1.000000    
     30 C     c    0.718040 *  0.337390 *  0.232610 *   0.00000    1.000000    
     31 C     c    0.001140 *  0.187050 *  0.148080 *   0.00000    1.000000    
     32 C     c    0.965430 *  0.404090 *  0.890210 *   0.00000    1.000000    
     33 C     c    0.506120 *  0.789580 *  0.785060 *   0.00000    1.000000    
     34 C     c    0.837780 *  0.141480 *  0.024540 *   0.00000    1.000000    
     35 C     c    0.349610 *  0.176980 *  0.704320 *   0.00000    1.000000    
     36 C     c    0.114160 *  0.481020 *  0.449370 *   0.00000    1.000000    
     37 C     c    0.177470 *  0.156740 *  0.076340 *   0.00000    1.000000    
     38 C     c    0.281670 *  0.397800 *  0.512320 *   0.00000    1.000000    
     39 C     c    0.098910 *  0.680840 *  0.419430 *   0.00000    1.000000    
     40 C     c    0.930150 *  0.506570 *  0.035090 *   0.00000    1.000000    
     41 C     c    0.825710 *  0.254140 *  0.863560 *   0.00000    1.000000    
     42 C     c    0.362940 *  0.214000 *  0.165770 *   0.00000    1.000000    
     43 C     c    0.399470 *  0.120970 *  0.502590 *   0.00000    1.000000    
     44 C     c    0.983380 *  0.715560 *  0.265900 *   0.00000    1.000000    
     45 C     c    0.394910 *  0.281560 *  0.358750 *   0.00000    1.000000    
     46 C     c    0.560620 *  0.397310 *  0.336180 *   0.00000    1.000000    
     47 C     c    0.315270 *  0.767480 *  0.789300 *   0.00000    1.000000    
     48 C     c    0.937820 *  0.909940 *  0.211780 *   0.00000    1.000000    
     49 C     c    0.766280 *  0.492620 *  0.107940 *   0.00000    1.000000    
     50 C     c    0.254780 *  0.806800 *  0.411390 *   0.00000    1.000000    
     51 C     c    0.703920 *  0.556230 *  0.406270 *   0.00000    1.000000    
     52 C     c    0.957750 *  0.762410 *  0.534000 *   0.00000    1.000000    
     53 C     c    0.232480 *  0.605790 *  0.869400 *   0.00000    1.000000    
     54 C     c    0.043270 *  0.616500 *  0.115680 *   0.00000    1.000000    
     55 C     c    0.619960 *  0.289910 *  0.840110 *   0.00000    1.000000    
     56 C     c    0.437720 *  0.008810 *  0.964830 *   0.00000    1.000000    
     57 C     c    0.520090 *  0.915040 *  0.281560 *   0.00000    1.000000    
     58 C     c    0.206950 *  0.638760 *  0.050740 *   0.00000    1.000000    
     59 C     c    0.024090 *  0.212260 *  0.608440 *   0.00000    1.000000    
     60 C     c    0.263200 *  0.965980 *  0.492200 *   0.00000    1.000000    
     61 C     c    0.714850 *  0.905160 *  0.357290 *   0.00000    1.000000    
     62 C     c    0.247900 *  0.994030 *  0.956370 *   0.00000    1.000000    
     63 C     c    0.509550 *  0.102510 *  0.802490 *   0.00000    1.000000    
     64 C     c    0.189960 *  0.302950 *  0.668360 *   0.00000    1.000000    
--------------------------------------------------------------------------------


  Constraints : 

--------------------------------------------------------------------------------
  Constraint no.      Unconstrained     Constrained    Coefficient    Offset
                         Variable         Variable
--------------------------------------------------------------------------------
           1              Strain 1        Strain 2       1.00000      0.0000
           2              Strain 1        Strain 3       1.00000      0.0000
--------------------------------------------------------------------------------


********************************************************************************
*  General input information                                                   *
********************************************************************************

  Species output for all configurations : 

--------------------------------------------------------------------------------
  Species    Type    Atomic    Atomic    Charge       Radii (Angs)     Library
                     Number     Mass       (e)     Cova   Ionic  VDW   Symbol
--------------------------------------------------------------------------------
    C        Core        6      12.01   0.000000   0.770  0.000  1.530          
--------------------------------------------------------------------------------


  Lattice summation method               =    Ewald          (3-D)
                                         =    Parry          (2-D)
                                         =    Saunders et al (1-D)
  Accuracy factor for lattice sums       =   12.000


  Analytic derivatives to be used

  Time limit = Infinity

  Maximum range for interatomic potentials =    100000.000000 Angstroms

  Brenner et al 2002 potential to be used with explicit splines for P


********************************************************************************
*  Output for configuration   1                                                *
********************************************************************************


  Components of energy : 

--------------------------------------------------------------------------------
  Interatomic potentials     =           0.00000000 eV    
  Brenner potentials         =        -420.48863549 eV    
  Monopole - monopole (real) =           0.00000000 eV    
  Monopole - monopole (recip)=           0.00000000 eV    
  Monopole - monopole (total)=           0.00000000 eV    
--------------------------------------------------------------------------------
  Total lattice energy       =        -420.48863549 eV    
--------------------------------------------------------------------------------
  Total lattice energy       =          -40570.7256 kJ/(mole unit cells)
--------------------------------------------------------------------------------


  Number of variables =      189

  Maximum number of calculations  =          2000
  Maximum Hessian update interval =            10
  Maximum step size               =   1.000000000
  Maximum parameter tolerance     =   0.000010000
  Maximum function  tolerance     =   0.000010000
  Maximum gradient  tolerance     =   0.001000000
  Maximum gradient  component     =   0.010000000

  Maximum LM gradient tolerance   =   0.900000000
  Symmetry not applied to optimisation

  Limited Memory BFGS to be used of order   10

  BFGS hessian update to be used

  Lower half triangular hessian to be used

  Start of bulk optimisation :

  Cycle:      0 Energy:      -420.488635  Gnorm:      0.672643  CPU:    0.051
  Cycle:      1 Energy:      -420.770207  Gnorm:      0.466722  CPU:    0.131
  Cycle:      2 Energy:      -421.205599  Gnorm:      0.278680  CPU:    0.148
  Cycle:      3 Energy:      -421.381808  Gnorm:      0.222911  CPU:    0.165
  Cycle:      4 Energy:      -421.513095  Gnorm:      0.233183  CPU:    0.182
  Cycle:      5 Energy:      -421.587231  Gnorm:      0.142491  CPU:    0.199
  Cycle:      6 Energy:      -421.619169  Gnorm:      0.096715  CPU:    0.216
  Cycle:      7 Energy:      -421.657739  Gnorm:      0.159670  CPU:    0.233
  Cycle:      8 Energy:      -421.690587  Gnorm:      0.086054  CPU:    0.251
  Cycle:      9 Energy:      -421.717074  Gnorm:      0.078400  CPU:    0.268
  Cycle:     10 Energy:      -421.744121  Gnorm:      0.156126  CPU:    0.286
  Cycle:     11 Energy:      -421.773537  Gnorm:      0.082508  CPU:    0.303
  Cycle:     12 Energy:      -421.782612  Gnorm:      0.051662  CPU:    0.325
  Cycle:     13 Energy:      -421.796778  Gnorm:      0.050467  CPU:    0.350
  Cycle:     14 Energy:      -421.806681  Gnorm:      0.052767  CPU:    0.367
  Cycle:     15 Energy:      -421.813690  Gnorm:      0.077267  CPU:    0.393
  Cycle:     16 Energy:      -421.822921  Gnorm:      0.038110  CPU:    0.411
  Cycle:     17 Energy:      -421.829075  Gnorm:      0.032003  CPU:    0.428
  Cycle:     18 Energy:      -421.835814  Gnorm:      0.036435  CPU:    0.446
  Cycle:     19 Energy:      -421.838394  Gnorm:      0.079150  CPU:    0.463
  Cycle:     20 Energy:      -421.844117  Gnorm:      0.028420  CPU:    0.481
  Cycle:     21 Energy:      -421.846325  Gnorm:      0.021833  CPU:    0.498
  Cycle:     22 Energy:      -421.848740  Gnorm:      0.027161  CPU:    0.516
  Cycle:     23 Energy:      -421.851997  Gnorm:      0.024979  CPU:    0.534
  Cycle:     24 Energy:      -421.852736  Gnorm:      0.063967  CPU:    0.551
  Cycle:     25 Energy:      -421.856589  Gnorm:      0.016783  CPU:    0.569
  Cycle:     26 Energy:      -421.857549  Gnorm:      0.013403  CPU:    0.586
  Cycle:     27 Energy:      -421.859068  Gnorm:      0.018208  CPU:    0.604
  Cycle:     28 Energy:      -421.860340  Gnorm:      0.034806  CPU:    0.621
  Cycle:     29 Energy:      -421.862009  Gnorm:      0.017448  CPU:    0.639
  Cycle:     30 Energy:      -421.863214  Gnorm:      0.015307  CPU:    0.657
  Cycle:     31 Energy:      -421.864070  Gnorm:      0.024567  CPU:    0.674
  Cycle:     32 Energy:      -421.865311  Gnorm:      0.018072  CPU:    0.692
  Cycle:     33 Energy:      -421.866571  Gnorm:      0.022678  CPU:    0.722
  Cycle:     34 Energy:      -421.867688  Gnorm:      0.016706  CPU:    0.740
  Cycle:     35 Energy:      -421.868690  Gnorm:      0.014665  CPU:    0.757
  Cycle:     36 Energy:      -421.870402  Gnorm:      0.023813  CPU:    0.775
  Cycle:     37 Energy:      -421.871181  Gnorm:      0.030999  CPU:    0.792
  Cycle:     38 Energy:      -421.872270  Gnorm:      0.018081  CPU:    0.810
  Cycle:     39 Energy:      -421.872915  Gnorm:      0.029272  CPU:    0.828
  Cycle:     40 Energy:      -421.873754  Gnorm:      0.013201  CPU:    0.852
  Cycle:     41 Energy:      -421.874384  Gnorm:      0.009919  CPU:    0.876
  Cycle:     42 Energy:      -421.875041  Gnorm:      0.012783  CPU:    0.901
  Cycle:     43 Energy:      -421.875890  Gnorm:      0.017281  CPU:    0.925
  Cycle:     44 Energy:      -421.876231  Gnorm:      0.022373  CPU:    0.942
  Cycle:     45 Energy:      -421.876852  Gnorm:      0.007807  CPU:    0.960
  Cycle:     46 Energy:      -421.877092  Gnorm:      0.007755  CPU:    0.978
  Cycle:     47 Energy:      -421.877490  Gnorm:      0.009136  CPU:    0.998
  Cycle:     48 Energy:      -421.877952  Gnorm:      0.016670  CPU:    1.016
  Cycle:     49 Energy:      -421.878323  Gnorm:      0.010053  CPU:    1.034
  Cycle:     50 Energy:      -421.878535  Gnorm:      0.005701  CPU:    1.052
  Cycle:     51 Energy:      -421.878725  Gnorm:      0.006184  CPU:    1.069
  Cycle:     52 Energy:      -421.878931  Gnorm:      0.010050  CPU:    1.087
  Cycle:     53 Energy:      -421.879221  Gnorm:      0.007203  CPU:    1.105
  Cycle:     54 Energy:      -421.879481  Gnorm:      0.008145  CPU:    1.123
  Cycle:     55 Energy:      -421.879673  Gnorm:      0.007608  CPU:    1.141
  Cycle:     56 Energy:      -421.879820  Gnorm:      0.006489  CPU:    1.159
  Cycle:     57 Energy:      -421.880008  Gnorm:      0.006046  CPU:    1.177
  Cycle:     58 Energy:      -421.880194  Gnorm:      0.011838  CPU:    1.195
  Cycle:     59 Energy:      -421.880382  Gnorm:      0.004883  CPU:    1.213
  Cycle:     60 Energy:      -421.880480  Gnorm:      0.004144  CPU:    1.231
  Cycle:     61 Energy:      -421.880609  Gnorm:      0.004721  CPU:    1.249
  Cycle:     62 Energy:      -421.880782  Gnorm:      0.008417  CPU:    1.266
  Cycle:     63 Energy:      -421.880940  Gnorm:      0.007471  CPU:    1.284
  Cycle:     64 Energy:      -421.881061  Gnorm:      0.004264  CPU:    1.307
  Cycle:     65 Energy:      -421.881193  Gnorm:      0.005466  CPU:    1.332
  Cycle:     66 Energy:      -421.881337  Gnorm:      0.007439  CPU:    1.350
  Cycle:     67 Energy:      -421.881595  Gnorm:      0.008530  CPU:    1.368
  Cycle:     68 Energy:      -421.881780  Gnorm:      0.011697  CPU:    1.385
  Cycle:     69 Energy:      -421.881999  Gnorm:      0.007025  CPU:    1.403
  Cycle:     70 Energy:      -421.882251  Gnorm:      0.006592  CPU:    1.421
  Cycle:     71 Energy:      -421.882519  Gnorm:      0.008915  CPU:    1.439
  Cycle:     72 Energy:      -421.882858  Gnorm:      0.012565  CPU:    1.457
  Cycle:     73 Energy:      -421.883215  Gnorm:      0.008132  CPU:    1.474
  Cycle:     74 Energy:      -421.883576  Gnorm:      0.008073  CPU:    1.492
  Cycle:     75 Energy:      -421.883907  Gnorm:      0.010908  CPU:    1.510
  Cycle:     76 Energy:      -421.884297  Gnorm:      0.010221  CPU:    1.527
  Cycle:     77 Energy:      -421.884605  Gnorm:      0.007062  CPU:    1.545
  Cycle:     78 Energy:      -421.884893  Gnorm:      0.009495  CPU:    1.563
  Cycle:     79 Energy:      -421.885043  Gnorm:      0.008464  CPU:    1.580
  Cycle:     80 Energy:      -421.885178  Gnorm:      0.005840  CPU:    1.598
  Cycle:     81 Energy:      -421.885398  Gnorm:      0.006613  CPU:    1.615
  Cycle:     82 Energy:      -421.885439  Gnorm:      0.013242  CPU:    1.633
  Cycle:     83 Energy:      -421.885554  Gnorm:      0.005975  CPU:    1.651
  Cycle:     84 Energy:      -421.885643  Gnorm:      0.003283  CPU:    1.668
  Cycle:     85 Energy:      -421.885723  Gnorm:      0.004369  CPU:    1.686
  Cycle:     86 Energy:      -421.885826  Gnorm:      0.004345  CPU:    1.704
  Cycle:     87 Energy:      -421.885880  Gnorm:      0.006842  CPU:    1.730
  Cycle:     88 Energy:      -421.885967  Gnorm:      0.003033  CPU:    1.748
  Cycle:     89 Energy:      -421.886014  Gnorm:      0.002703  CPU:    1.765
  Cycle:     90 Energy:      -421.886101  Gnorm:      0.004902  CPU:    1.783
  Cycle:     91 Energy:      -421.886141  Gnorm:      0.008409  CPU:    1.800
  Cycle:     92 Energy:      -421.886213  Gnorm:      0.003600  CPU:    1.818
  Cycle:     93 Energy:      -421.886264  Gnorm:      0.003096  CPU:    1.836
  Cycle:     94 Energy:      -421.886308  Gnorm:      0.003468  CPU:    1.853
  Cycle:     95 Energy:      -421.886387  Gnorm:      0.003700  CPU:    1.871
  Cycle:     96 Energy:      -421.886417  Gnorm:      0.004296  CPU:    1.898
  Cycle:     97 Energy:      -421.886454  Gnorm:      0.002275  CPU:    1.928
  Cycle:     98 Energy:      -421.886478  Gnorm:      0.002162  CPU:    1.946
  Cycle:     99 Energy:      -421.886503  Gnorm:      0.003676  CPU:    1.964
  Cycle:    100 Energy:      -421.886528  Gnorm:      0.002351  CPU:    1.981
  Cycle:    101 Energy:      -421.886550  Gnorm:      0.001970  CPU:    1.999
  Cycle:    102 Energy:      -421.886566  Gnorm:      0.002267  CPU:    2.017
  Cycle:    103 Energy:      -421.886586  Gnorm:      0.001899  CPU:    2.035
  Cycle:    104 Energy:      -421.886606  Gnorm:      0.001879  CPU:    2.053
  Cycle:    105 Energy:      -421.886612  Gnorm:      0.003362  CPU:    2.071
  Cycle:    106 Energy:      -421.886624  Gnorm:      0.001337  CPU:    2.088
  Cycle:    107 Energy:      -421.886630  Gnorm:      0.001113  CPU:    2.120
  Cycle:    108 Energy:      -421.886639  Gnorm:      0.001446  CPU:    2.150
  Cycle:    109 Energy:      -421.886645  Gnorm:      0.002987  CPU:    2.168
  Cycle:    110 Energy:      -421.886655  Gnorm:      0.001368  CPU:    2.186
  Cycle:    111 Energy:      -421.886661  Gnorm:      0.001036  CPU:    2.204
  Cycle:    112 Energy:      -421.886668  Gnorm:      0.001256  CPU:    2.223
  Cycle:    113 Energy:      -421.886677  Gnorm:      0.001830  CPU:    2.241
  Cycle:    114 Energy:      -421.886688  Gnorm:      0.001925  CPU:    2.259
  Cycle:    115 Energy:      -421.886696  Gnorm:      0.001198  CPU:    2.277
  Cycle:    116 Energy:      -421.886703  Gnorm:      0.001198  CPU:    2.295
  Cycle:    117 Energy:      -421.886711  Gnorm:      0.001294  CPU:    2.314
  Cycle:    118 Energy:      -421.886717  Gnorm:      0.003614  CPU:    2.332
  Cycle:    119 Energy:      -421.886731  Gnorm:      0.001173  CPU:    2.350
  Cycle:    120 Energy:      -421.886734  Gnorm:      0.001016  CPU:    2.368
  Cycle:    121 Energy:      -421.886745  Gnorm:      0.001100  CPU:    2.386
  Cycle:    122 Energy:      -421.886750  Gnorm:      0.002148  CPU:    2.413
  Cycle:    123 Energy:      -421.886759  Gnorm:      0.001284  CPU:    2.436
  Cycle:    124 Energy:      -421.886767  Gnorm:      0.001014  CPU:    2.459
  Cycle:    125 Energy:      -421.886774  Gnorm:      0.001481  CPU:    2.477
  Cycle:    126 Energy:      -421.886781  Gnorm:      0.001192  CPU:    2.487
  Cycle:    127 Energy:      -421.886788  Gnorm:      0.001112  CPU:    2.494
  Cycle:    128 Energy:      -421.886791  Gnorm:      0.002130  CPU:    2.517
  Cycle:    129 Energy:      -421.886796  Gnorm:      0.000842  CPU:    2.538
  Cycle:    130 Energy:      -421.886799  Gnorm:      0.000807  CPU:    2.546
  Cycle:    131 Energy:      -421.886802  Gnorm:      0.000940  CPU:    2.568
  Cycle:    132 Energy:      -421.886808  Gnorm:      0.001103  CPU:    2.580
  Cycle:    133 Energy:      -421.886810  Gnorm:      0.001138  CPU:    2.594
  Cycle:    134 Energy:      -421.886813  Gnorm:      0.000632  CPU:    2.617
  Cycle:    135 Energy:      -421.886815  Gnorm:      0.000714  CPU:    2.624
  Cycle:    136 Energy:      -421.886818  Gnorm:      0.001131  CPU:    2.641
  Cycle:    137 Energy:      -421.886821  Gnorm:      0.001014  CPU:    2.658
  Cycle:    138 Energy:      -421.886824  Gnorm:      0.000649  CPU:    2.665
  Cycle:    139 Energy:      -421.886825  Gnorm:      0.000870  CPU:    2.686
  Cycle:    140 Energy:      -421.886827  Gnorm:      0.000650  CPU:    2.699
  Cycle:    141 Energy:      -421.886828  Gnorm:      0.000653  CPU:    2.706
  Cycle:    142 Energy:      -421.886830  Gnorm:      0.000755  CPU:    2.731
  Cycle:    143 Energy:      -421.886831  Gnorm:      0.000809  CPU:    2.741
  Cycle:    144 Energy:      -421.886832  Gnorm:      0.000338  CPU:    2.747
  Cycle:    145 Energy:      -421.886832  Gnorm:      0.000323  CPU:    2.773
  Cycle:    146 Energy:      -421.886833  Gnorm:      0.000371  CPU:    2.782
  Cycle:    147 Energy:      -421.886834  Gnorm:      0.000477  CPU:    2.788
  Cycle:    148 Energy:      -421.886834  Gnorm:      0.000390  CPU:    2.819


  **** Optimisation achieved ****


  Final energy =    -421.88683457 eV
  Final Gnorm  =       0.00021106

  Components of energy : 

--------------------------------------------------------------------------------
  Interatomic potentials     =           0.00000000 eV    
  Brenner potentials         =        -421.88683457 eV    
  Monopole - monopole (real) =           0.00000000 eV    
  Monopole - monopole (recip)=           0.00000000 eV    
  Monopole - monopole (total)=           0.00000000 eV    
--------------------------------------------------------------------------------
  Total lattice energy       =        -421.88683457 eV    
--------------------------------------------------------------------------------
  Total lattice energy       =          -40705.6304 kJ/(mole unit cells)
--------------------------------------------------------------------------------

  Final fractional coordinates of atoms :

--------------------------------------------------------------------------------
   No.  Atomic        x           y          z          Radius
        Label       (Frac)      (Frac)     (Frac)       (Angs) 
--------------------------------------------------------------------------------
     1  C     c     0.476040    0.519880    0.065020    0.000000
     2  C     c     0.412682    0.739144    0.304891    0.000000
     3  C     c     0.290154    0.257641    0.911763    0.000000
     4  C     c     0.106419    0.009055    0.611781    0.000000
     5  C     c     0.967271    0.853535    0.880094    0.000000
     6  C     c     0.797044    0.475280    0.580813    0.000000
     7  C     c     0.613819    0.416940    0.678803    0.000000
     8  C     c     0.793251    0.711518    0.329631    0.000000
     9  C     c     0.883961    0.246412    0.325230    0.000000
    10  C     c     0.684668    0.159839    0.138384    0.000000
    11  C     c     0.877022    0.036949    0.353971    0.000000
    12  C     c     0.951393    0.931712    0.517191    0.000000
    13  C     c     0.515397    0.056943    0.147988    0.000000
    14  C     c     0.555754    0.980620    0.494819    0.000000
    15  C     c     0.469088    0.328530    0.001300    0.000000
    16  C     c     0.951088    0.350192    0.485062    0.000000
    17  C     c     0.161131    0.417097    0.829955    0.000000
    18  C     c     0.837723    0.730970    0.817051    0.000000
    19  C     c     0.929928    0.952896    0.034611    0.000000
    20  C     c     0.148745    0.912843    0.788813    0.000000
    21  C     c     0.875469    0.644651    0.656940    0.000000
    22  C     c     0.892172    0.124348    0.725364    0.000000
    23  C     c     0.503863    0.601700    0.412114    0.000000
    24  C     c     0.656029    0.703527    0.883385    0.000000
    25  C     c     0.641983    0.587088    0.028848    0.000000
    26  C     c     0.793607    0.972658    0.720906    0.000000
    27  C     c     0.469483    0.468045    0.575820    0.000000
    28  C     c     0.359709    0.642466    0.137299    0.000000
    29  C     c     0.594929    0.951016    0.689256    0.000000
    30  C     c     0.716136    0.338099    0.234008    0.000000
    31  C     c     0.006842    0.180539    0.156187    0.000000
    32  C     c     0.971176    0.395635    0.892700    0.000000
    33  C     c     0.509932    0.784355    0.780862    0.000000
    34  C     c     0.843910    0.134849    0.028033    0.000000
    35  C     c     0.355438    0.173486    0.710494    0.000000
    36  C     c     0.115171    0.477350    0.442473    0.000000
    37  C     c     0.182183    0.155145    0.080509    0.000000
    38  C     c     0.282000    0.398899    0.515659    0.000000
    39  C     c     0.104723    0.673150    0.417510    0.000000
    40  C     c     0.934872    0.498385    0.037488    0.000000
    41  C     c     0.833730    0.247687    0.867734    0.000000
    42  C     c     0.370789    0.210785    0.167512    0.000000
    43  C     c     0.397679    0.116172    0.505538    0.000000
    44  C     c     0.983366    0.718427    0.262921    0.000000
    45  C     c     0.394534    0.276003    0.365053    0.000000
    46  C     c     0.555894    0.397619    0.338192    0.000000
    47  C     c     0.314378    0.760498    0.776307    0.000000
    48  C     c     0.961094    0.910939    0.210590    0.000000
    49  C     c     0.769045    0.484959    0.109596    0.000000
    50  C     c     0.257001    0.804395    0.411953    0.000000
    51  C     c     0.710120    0.549473    0.404333    0.000000
    52  C     c     0.958195    0.747470    0.532102    0.000000
    53  C     c     0.233809    0.603669    0.858565    0.000000
    54  C     c     0.042224    0.621122    0.108929    0.000000
    55  C     c     0.625692    0.286879    0.843764    0.000000
    56  C     c     0.441514    0.007613    0.966922    0.000000
    57  C     c     0.522686    0.911876    0.285197    0.000000
    58  C     c     0.206407    0.648322    0.040510    0.000000
    59  C     c     0.037346    0.209785    0.610452    0.000000
    60  C     c     0.259395    0.962955    0.489874    0.000000
    61  C     c     0.718839    0.894692    0.367459    0.000000
    62  C     c     0.246000    0.000621    0.951534    0.000000
    63  C     c     0.519488    0.098436    0.807175    0.000000
    64  C     c     0.201877    0.302257    0.668404    0.000000
--------------------------------------------------------------------------------

  Final internal derivatives :

--------------------------------------------------------------------------------
   No.  Atomic          a             b             c           Radius
        Label          (eV)          (eV)          (eV)        (eV/Angs)
--------------------------------------------------------------------------------
      1 C     c       0.000000      0.000000      0.000000      0.000000
      2 C     c       0.001048      0.002168     -0.002519      0.000000
      3 C     c      -0.002007     -0.002821     -0.005652      0.000000
      4 C     c      -0.002998     -0.000741      0.000746      0.000000
      5 C     c      -0.002990     -0.003172      0.000253      0.000000
      6 C     c      -0.003418      0.000390      0.001998      0.000000
      7 C     c       0.002323      0.004995      0.003992      0.000000
      8 C     c       0.004745      0.003774      0.008872      0.000000
      9 C     c       0.002609      0.000448     -0.005151      0.000000
     10 C     c      -0.005284      0.001544      0.000171      0.000000
     11 C     c      -0.000677      0.001972     -0.006833      0.000000
     12 C     c       0.000295     -0.001253     -0.002422      0.000000
     13 C     c       0.001775     -0.001439     -0.002321      0.000000
     14 C     c      -0.004182      0.002326      0.001455      0.000000
     15 C     c       0.001954     -0.000440     -0.001198      0.000000
     16 C     c      -0.005471     -0.000352     -0.000993      0.000000
     17 C     c       0.000150     -0.001203     -0.000140      0.000000
     18 C     c      -0.002018     -0.001983     -0.003066      0.000000
     19 C     c      -0.001815     -0.003246      0.001220      0.000000
     20 C     c       0.002144      0.002621     -0.002436      0.000000
     21 C     c       0.000592     -0.003616      0.001984      0.000000
     22 C     c       0.001090      0.004317     -0.001020      0.000000
     23 C     c      -0.003480      0.000752     -0.004497      0.000000
     24 C     c      -0.001398      0.003068     -0.002294      0.000000
     25 C     c       0.001423     -0.000323     -0.002727      0.000000
     26 C     c       0.002796      0.005285     -0.003617      0.000000
     27 C     c       0.002845     -0.000085      0.000705      0.000000
     28 C     c      -0.001184     -0.000275      0.003948      0.000000
     29 C     c      -0.000724     -0.001036      0.000058      0.000000
     30 C     c       0.001357     -0.002216      0.006760      0.000000
     31 C     c      -0.002440     -0.007048     -0.004241      0.000000
     32 C     c       0.001778     -0.004345      0.000069      0.000000
     33 C     c       0.000347      0.000253      0.005531      0.000000
     34 C     c      -0.004696      0.000266      0.001501      0.000000
     35 C     c      -0.000773     -0.002435     -0.001558      0.000000
     36 C     c       0.004320      0.000984      0.000685      0.000000
     37 C     c      -0.002648      0.000205     -0.000577      0.000000
     38 C     c       0.002052      0.004065      0.000856      0.000000
     39 C     c      -0.000311     -0.002164      0.005001      0.000000
     40 C     c       0.001335     -0.006942      0.001797      0.000000
     41 C     c      -0.003685      0.001473     -0.001502      0.000000
     42 C     c      -0.003437     -0.004667     -0.001384      0.000000
     43 C     c      -0.002087     -0.003223     -0.000594      0.000000
     44 C     c      -0.000008      0.001870      0.002344      0.000000
     45 C     c       0.000340     -0.003530      0.005761      0.000000
     46 C     c      -0.001538     -0.003142      0.006104      0.000000
     47 C     c      -0.000833     -0.001033      0.003060      0.000000
     48 C     c       0.004442      0.001589      0.001158      0.000000
     49 C     c      -0.000261     -0.003149      0.001773      0.000000
     50 C     c       0.004731     -0.001195     -0.001882      0.000000
     51 C     c      -0.000743     -0.003999      0.000506      0.000000
     52 C     c      -0.005672     -0.002722     -0.002248      0.000000
     53 C     c       0.001567     -0.004285     -0.002030      0.000000
     54 C     c      -0.001061     -0.001200     -0.001027      0.000000
     55 C     c      -0.007407     -0.001059     -0.000135      0.000000
     56 C     c      -0.002039      0.003568      0.002575      0.000000
     57 C     c      -0.000152      0.006645     -0.000661      0.000000
     58 C     c       0.000209      0.004014     -0.001286      0.000000
     59 C     c       0.001365      0.000468      0.000467      0.000000
     60 C     c      -0.004454     -0.000273     -0.003053      0.000000
     61 C     c      -0.000733     -0.003425      0.001648      0.000000
     62 C     c       0.000051     -0.001490     -0.000077      0.000000
     63 C     c       0.003342      0.004369      0.000161      0.000000
     64 C     c       0.001222     -0.001809      0.000926      0.000000
--------------------------------------------------------------------------------
  Maximum abs         0.007407      0.007048      0.008872      0.000000
--------------------------------------------------------------------------------


  Time to end of optimisation =       2.8272 seconds


  Peak dynamic memory used =       2.01 MB 


  Timing analysis for GULP :

--------------------------------------------------------------------------------
  Task / Subroutine                                          Time (Seconds)
--------------------------------------------------------------------------------
  Calculation of Brenner energy and derivatives                   2.7482
--------------------------------------------------------------------------------
  Total CPU time                                                  2.8272
--------------------------------------------------------------------------------


  CIF file written as opti_0.9700.cif


  Job Finished at 12:59.19 31st July       2020                               

