********************************************************************************
*                       GENERAL UTILITY LATTICE PROGRAM                        *
*                                 Julian Gale                                  *
*                       Curtin Institute for Computation                       *
*                    School of Molecular and Life Sciences                     *
*                    Curtin University, Western Australia                      *
********************************************************************************
* Version = 5.2.0 * Last modified =  17th December 2019                        *
********************************************************************************
*  optimise     - perform optimisation run                                     *
*  conv         - constant volume calculation                                  *
*  isotropic    - only isotropic cell expansion to be allowed                  *
*  lbfgs        - use limited memory BFGS update                               *
********************************************************************************
* ASE calculation                                                              *
********************************************************************************


  Job Started  at 16:20.14 12th August     2020                               

  Number of CPUs =     1


  Total number of configurations input =      1

********************************************************************************
*  Input for Configuration =   1                                               *
********************************************************************************

  Formula = C64                                                         

  Number of irreducible atoms/shells =      64


  Total number atoms/shells =      64

  Dimensionality = 3               :  Bulk   



  Cartesian lattice vectors (Angstroms) :

        7.576768    0.000000    0.000000
        0.000000    7.576768    0.000000
        0.000000    0.000000    7.576768

  Cell parameters (Angstroms/Degrees):

  a =       7.5768    alpha =  90.0000
  b =       7.5768    beta  =  90.0000
  c =       7.5768    gamma =  90.0000

  Initial cell volume =         434.962652 Angs**3

  Temperature of configuration =   0.00     K 

  Pressure of configuration =         0.000 GPa 

  Fractional coordinates of asymmetric unit :

--------------------------------------------------------------------------------
   No.  Atomic       x           y          z         Charge      Occupancy
        Label      (Frac)      (Frac)     (Frac)        (e)         (Frac)  
--------------------------------------------------------------------------------
      1 C     c    0.082860    0.546420    0.420470     0.00000    1.000000    
      2 C     c    0.300470 *  0.098480 *  0.158050 *   0.00000    1.000000    
      3 C     c    0.135430 *  0.397320 *  0.321400 *   0.00000    1.000000    
      4 C     c    0.905490 *  0.925920 *  0.500530 *   0.00000    1.000000    
      5 C     c    0.496470 *  0.888330 *  0.033250 *   0.00000    1.000000    
      6 C     c    0.816780 *  0.441270 *  0.290230 *   0.00000    1.000000    
      7 C     c    0.945770 *  0.607820 *  0.761780 *   0.00000    1.000000    
      8 C     c    0.840320 *  0.519590 *  0.629820 *   0.00000    1.000000    
      9 C     c    0.152890 *  0.348160 *  0.688790 *   0.00000    1.000000    
     10 C     c    0.417360 *  0.733360 *  0.168120 *   0.00000    1.000000    
     11 C     c    0.912950 *  0.222370 *  0.789680 *   0.00000    1.000000    
     12 C     c    0.594660 *  0.873970 *  0.593910 *   0.00000    1.000000    
     13 C     c    0.450710 *  0.212820 *  0.666970 *   0.00000    1.000000    
     14 C     c    0.222920 *  0.959920 *  0.855440 *   0.00000    1.000000    
     15 C     c    0.544790 *  0.575680 *  0.447490 *   0.00000    1.000000    
     16 C     c    0.011880 *  0.923390 *  0.168010 *   0.00000    1.000000    
     17 C     c    0.170450 *  0.793090 *  0.921890 *   0.00000    1.000000    
     18 C     c    0.324040 *  0.692350 *  0.651930 *   0.00000    1.000000    
     19 C     c    0.762670 *  0.347470 *  0.713160 *   0.00000    1.000000    
     20 C     c    0.064920 *  0.226020 *  0.316700 *   0.00000    1.000000    
     21 C     c    0.939020 *  0.137230 *  0.452960 *   0.00000    1.000000    
     22 C     c    0.882990 *  0.573160 *  0.439880 *   0.00000    1.000000    
     23 C     c    0.483380 *  0.799280 *  0.721410 *   0.00000    1.000000    
     24 C     c    0.800220 *  0.235140 *  0.302270 *   0.00000    1.000000    
     25 C     c    0.720270 *  0.151940 *  0.111960 *   0.00000    1.000000    
     26 C     c    0.529470 *  0.570940 *  0.123160 *   0.00000    1.000000    
     27 C     c    0.623950 *  0.264260 *  0.582370 *   0.00000    1.000000    
     28 C     c    0.661500 *  0.958000 *  0.159510 *   0.00000    1.000000    
     29 C     c    0.510700 *  0.875200 *  0.296820 *   0.00000    1.000000    
     30 C     c    0.368170 *  0.034740 *  0.972170 *   0.00000    1.000000    
     31 C     c    0.838010 *  0.084970 *  0.940300 *   0.00000    1.000000    
     32 C     c    0.887020 *  0.741300 *  0.878490 *   0.00000    1.000000    
     33 C     c    0.329920 *  0.369220 *  0.625000 *   0.00000    1.000000    
     34 C     c    0.234910 *  0.665930 *  0.237200 *   0.00000    1.000000    
     35 C     c    0.097820 *  0.482080 *  0.828230 *   0.00000    1.000000    
     36 C     c    0.357300 *  0.059430 *  0.561620 *   0.00000    1.000000    
     37 C     c    0.205560 *  0.709380 *  0.458790 *   0.00000    1.000000    
     38 C     c    0.577830 *  0.283650 *  0.000200 *   0.00000    1.000000    
     39 C     c    0.096250 *  0.111340 *  0.154850 *   0.00000    1.000000    
     40 C     c    0.783300 *  0.916310 *  0.845700 *   0.00000    1.000000    
     41 C     c    0.406360 *  0.526900 *  0.561540 *   0.00000    1.000000    
     42 C     c    0.094690 *  0.865200 *  0.548260 *   0.00000    1.000000    
     43 C     c    0.072230 *  0.412820 *  0.017680 *   0.00000    1.000000    
     44 C     c    0.238240 *  0.455410 *  0.151960 *   0.00000    1.000000    
     45 C     c    0.203740 *  0.654420 *  0.807420 *   0.00000    1.000000    
     46 C     c    0.918830 *  0.504530 *  0.126220 *   0.00000    1.000000    
     47 C     c    0.828050 *  0.833420 *  0.193820 *   0.00000    1.000000    
     48 C     c    0.017560 *  0.212950 *  0.992570 *   0.00000    1.000000    
     49 C     c    0.812710 *  0.769570 *  0.389370 *   0.00000    1.000000    
     50 C     c    0.835940 *  0.673740 *  0.062610 *   0.00000    1.000000    
     51 C     c    0.185060 *  0.009430 *  0.659170 *   0.00000    1.000000    
     52 C     c    0.457630 *  0.216810 *  0.274090 *   0.00000    1.000000    
     53 C     c    0.431410 *  0.378370 *  0.134190 *   0.00000    1.000000    
     54 C     c    0.387750 *  0.028060 *  0.356610 *   0.00000    1.000000    
     55 C     c    0.620120 *  0.243470 *  0.401380 *   0.00000    1.000000    
     56 C     c    0.467290 *  0.174440 *  0.869580 *   0.00000    1.000000    
     57 C     c    0.671060 *  0.425450 *  0.885090 *   0.00000    1.000000    
     58 C     c    0.760010 *  0.942560 *  0.648250 *   0.00000    1.000000    
     59 C     c    0.130720 *  0.786950 *  0.105540 *   0.00000    1.000000    
     60 C     c    0.614630 *  0.488110 *  0.292770 *   0.00000    1.000000    
     61 C     c    0.609350 *  0.770250 *  0.432430 *   0.00000    1.000000    
     62 C     c    0.047380 *  0.170810 *  0.640760 *   0.00000    1.000000    
     63 C     c    0.654620 *  0.612400 *  0.969500 *   0.00000    1.000000    
     64 C     c    0.597000 *  0.795710 *  0.888070 *   0.00000    1.000000    
--------------------------------------------------------------------------------


  Constraints : 

--------------------------------------------------------------------------------
  Constraint no.      Unconstrained     Constrained    Coefficient    Offset
                         Variable         Variable
--------------------------------------------------------------------------------
           1              Strain 1        Strain 2       1.00000      0.0000
           2              Strain 1        Strain 3       1.00000      0.0000
--------------------------------------------------------------------------------


********************************************************************************
*  General input information                                                   *
********************************************************************************

  Species output for all configurations : 

--------------------------------------------------------------------------------
  Species    Type    Atomic    Atomic    Charge       Radii (Angs)     Library
                     Number     Mass       (e)     Cova   Ionic  VDW   Symbol
--------------------------------------------------------------------------------
    C        Core        6      12.01   0.000000   0.770  0.000  1.530          
--------------------------------------------------------------------------------


  Lattice summation method               =    Ewald          (3-D)
                                         =    Parry          (2-D)
                                         =    Saunders et al (1-D)
  Accuracy factor for lattice sums       =   12.000


  Analytic derivatives to be used

  Time limit = Infinity

  Maximum range for interatomic potentials =    100000.000000 Angstroms

  Brenner et al 2002 potential to be used with explicit splines for P


********************************************************************************
*  Output for configuration   1                                                *
********************************************************************************


  Components of energy : 

--------------------------------------------------------------------------------
  Interatomic potentials     =           0.00000000 eV    
  Brenner potentials         =        -424.79798814 eV    
  Monopole - monopole (real) =           0.00000000 eV    
  Monopole - monopole (recip)=           0.00000000 eV    
  Monopole - monopole (total)=           0.00000000 eV    
--------------------------------------------------------------------------------
  Total lattice energy       =        -424.79798814 eV    
--------------------------------------------------------------------------------
  Total lattice energy       =          -40986.5122 kJ/(mole unit cells)
--------------------------------------------------------------------------------


  Number of variables =      189

  Maximum number of calculations  =          2000
  Maximum Hessian update interval =            10
  Maximum step size               =   1.000000000
  Maximum parameter tolerance     =   0.000010000
  Maximum function  tolerance     =   0.000010000
  Maximum gradient  tolerance     =   0.001000000
  Maximum gradient  component     =   0.010000000

  Maximum LM gradient tolerance   =   0.900000000
  Symmetry not applied to optimisation

  Limited Memory BFGS to be used of order   10

  BFGS hessian update to be used

  Lower half triangular hessian to be used

  Start of bulk optimisation :

  Cycle:      0 Energy:      -424.797988  Gnorm:      0.277766  CPU:    0.013
  Cycle:      1 Energy:      -424.827238  Gnorm:      0.245302  CPU:    0.022
  Cycle:      2 Energy:      -424.878225  Gnorm:      0.239339  CPU:    0.027
  Cycle:      3 Energy:      -424.925774  Gnorm:      0.054619  CPU:    0.046
  Cycle:      4 Energy:      -424.931472  Gnorm:      0.045184  CPU:    0.052
  Cycle:      5 Energy:      -424.944295  Gnorm:      0.056738  CPU:    0.056
  Cycle:      6 Energy:      -424.951234  Gnorm:      0.071496  CPU:    0.060
  Cycle:      7 Energy:      -424.959500  Gnorm:      0.039474  CPU:    0.064
  Cycle:      8 Energy:      -424.962757  Gnorm:      0.026827  CPU:    0.067
  Cycle:      9 Energy:      -424.966252  Gnorm:      0.029045  CPU:    0.076
  Cycle:     10 Energy:      -424.969716  Gnorm:      0.029376  CPU:    0.092
  Cycle:     11 Energy:      -424.971674  Gnorm:      0.040033  CPU:    0.098
  Cycle:     12 Energy:      -424.973921  Gnorm:      0.015319  CPU:    0.119
  Cycle:     13 Energy:      -424.974811  Gnorm:      0.013337  CPU:    0.126
  Cycle:     14 Energy:      -424.975608  Gnorm:      0.013373  CPU:    0.131
  Cycle:     15 Energy:      -424.976412  Gnorm:      0.016811  CPU:    0.135
  Cycle:     16 Energy:      -424.977021  Gnorm:      0.009137  CPU:    0.138
  Cycle:     17 Energy:      -424.977308  Gnorm:      0.007517  CPU:    0.142
  Cycle:     18 Energy:      -424.977646  Gnorm:      0.009231  CPU:    0.148
  Cycle:     19 Energy:      -424.977887  Gnorm:      0.008298  CPU:    0.166
  Cycle:     20 Energy:      -424.978046  Gnorm:      0.006237  CPU:    0.171
  Cycle:     21 Energy:      -424.978227  Gnorm:      0.006788  CPU:    0.176
  Cycle:     22 Energy:      -424.978332  Gnorm:      0.005827  CPU:    0.180
  Cycle:     23 Energy:      -424.978429  Gnorm:      0.005405  CPU:    0.183
  Cycle:     24 Energy:      -424.978596  Gnorm:      0.009464  CPU:    0.187
  Cycle:     25 Energy:      -424.978720  Gnorm:      0.005960  CPU:    0.207
  Cycle:     26 Energy:      -424.978786  Gnorm:      0.004366  CPU:    0.212
  Cycle:     27 Energy:      -424.978959  Gnorm:      0.003619  CPU:    0.217
  Cycle:     28 Energy:      -424.979058  Gnorm:      0.005971  CPU:    0.221
  Cycle:     29 Energy:      -424.979176  Gnorm:      0.004073  CPU:    0.224
  Cycle:     30 Energy:      -424.979281  Gnorm:      0.003417  CPU:    0.237
  Cycle:     31 Energy:      -424.979371  Gnorm:      0.008206  CPU:    0.249
  Cycle:     32 Energy:      -424.979481  Gnorm:      0.004192  CPU:    0.254
  Cycle:     33 Energy:      -424.979547  Gnorm:      0.003918  CPU:    0.259
  Cycle:     34 Energy:      -424.979698  Gnorm:      0.004336  CPU:    0.263
  Cycle:     35 Energy:      -424.979767  Gnorm:      0.010948  CPU:    0.266
  Cycle:     36 Energy:      -424.979905  Gnorm:      0.004732  CPU:    0.279
  Cycle:     37 Energy:      -424.979992  Gnorm:      0.003576  CPU:    0.290
  Cycle:     38 Energy:      -424.980073  Gnorm:      0.004526  CPU:    0.295
  Cycle:     39 Energy:      -424.980173  Gnorm:      0.005292  CPU:    0.299
  Cycle:     40 Energy:      -424.980256  Gnorm:      0.008801  CPU:    0.303
  Cycle:     41 Energy:      -424.980364  Gnorm:      0.003395  CPU:    0.306
  Cycle:     42 Energy:      -424.980423  Gnorm:      0.003801  CPU:    0.319
  Cycle:     43 Energy:      -424.980498  Gnorm:      0.004228  CPU:    0.331
  Cycle:     44 Energy:      -424.980594  Gnorm:      0.010183  CPU:    0.335
  Cycle:     45 Energy:      -424.980731  Gnorm:      0.004380  CPU:    0.339
  Cycle:     46 Energy:      -424.980789  Gnorm:      0.003182  CPU:    0.343
  Cycle:     47 Energy:      -424.980859  Gnorm:      0.003639  CPU:    0.357
  Cycle:     48 Energy:      -424.980928  Gnorm:      0.005272  CPU:    0.368
  Cycle:     49 Energy:      -424.981001  Gnorm:      0.003593  CPU:    0.374
  Cycle:     50 Energy:      -424.981043  Gnorm:      0.002969  CPU:    0.379
  Cycle:     51 Energy:      -424.981074  Gnorm:      0.002465  CPU:    0.382
  Cycle:     52 Energy:      -424.981098  Gnorm:      0.002193  CPU:    0.386
  Cycle:     53 Energy:      -424.981128  Gnorm:      0.004462  CPU:    0.407
  Cycle:     54 Energy:      -424.981161  Gnorm:      0.001845  CPU:    0.413
  Cycle:     55 Energy:      -424.981173  Gnorm:      0.001792  CPU:    0.417
  Cycle:     56 Energy:      -424.981199  Gnorm:      0.001548  CPU:    0.422
  Cycle:     57 Energy:      -424.981220  Gnorm:      0.002000  CPU:    0.425
  Cycle:     58 Energy:      -424.981235  Gnorm:      0.002800  CPU:    0.445
  Cycle:     59 Energy:      -424.981248  Gnorm:      0.001430  CPU:    0.451
  Cycle:     60 Energy:      -424.981256  Gnorm:      0.001166  CPU:    0.456
  Cycle:     61 Energy:      -424.981265  Gnorm:      0.001335  CPU:    0.460
  Cycle:     62 Energy:      -424.981271  Gnorm:      0.003131  CPU:    0.463
  Cycle:     63 Energy:      -424.981284  Gnorm:      0.001128  CPU:    0.466
  Cycle:     64 Energy:      -424.981290  Gnorm:      0.000934  CPU:    0.471
  Cycle:     65 Energy:      -424.981296  Gnorm:      0.001002  CPU:    0.490
  Cycle:     66 Energy:      -424.981301  Gnorm:      0.001944  CPU:    0.498
  Cycle:     67 Energy:      -424.981309  Gnorm:      0.001233  CPU:    0.503
  Cycle:     68 Energy:      -424.981317  Gnorm:      0.001046  CPU:    0.506
  Cycle:     69 Energy:      -424.981323  Gnorm:      0.001860  CPU:    0.510
  Cycle:     70 Energy:      -424.981329  Gnorm:      0.001236  CPU:    0.530
  Cycle:     71 Energy:      -424.981337  Gnorm:      0.001249  CPU:    0.536
  Cycle:     72 Energy:      -424.981349  Gnorm:      0.001576  CPU:    0.541
  Cycle:     73 Energy:      -424.981364  Gnorm:      0.003225  CPU:    0.545
  Cycle:     74 Energy:      -424.981383  Gnorm:      0.001815  CPU:    0.548
  Cycle:     75 Energy:      -424.981401  Gnorm:      0.001534  CPU:    0.562
  Cycle:     76 Energy:      -424.981423  Gnorm:      0.002292  CPU:    0.573
  Cycle:     77 Energy:      -424.981440  Gnorm:      0.003059  CPU:    0.579
  Cycle:     78 Energy:      -424.981459  Gnorm:      0.001793  CPU:    0.583
  Cycle:     79 Energy:      -424.981483  Gnorm:      0.001946  CPU:    0.586
  Cycle:     80 Energy:      -424.981498  Gnorm:      0.002071  CPU:    0.590
  Cycle:     81 Energy:      -424.981522  Gnorm:      0.003183  CPU:    0.610
  Cycle:     82 Energy:      -424.981546  Gnorm:      0.001779  CPU:    0.616
  Cycle:     83 Energy:      -424.981561  Gnorm:      0.001721  CPU:    0.621
  Cycle:     84 Energy:      -424.981574  Gnorm:      0.001595  CPU:    0.625
  Cycle:     85 Energy:      -424.981582  Gnorm:      0.002876  CPU:    0.629
  Cycle:     86 Energy:      -424.981593  Gnorm:      0.001232  CPU:    0.644
  Cycle:     87 Energy:      -424.981599  Gnorm:      0.001079  CPU:    0.655
  Cycle:     88 Energy:      -424.981604  Gnorm:      0.001172  CPU:    0.660
  Cycle:     89 Energy:      -424.981613  Gnorm:      0.002208  CPU:    0.664
  Cycle:     90 Energy:      -424.981619  Gnorm:      0.001124  CPU:    0.668
  Cycle:     91 Energy:      -424.981621  Gnorm:      0.000633  CPU:    0.672
  Cycle:     92 Energy:      -424.981624  Gnorm:      0.000546  CPU:    0.680
  Cycle:     93 Energy:      -424.981627  Gnorm:      0.000637  CPU:    0.696
  Cycle:     94 Energy:      -424.981628  Gnorm:      0.000856  CPU:    0.705
  Cycle:     95 Energy:      -424.981630  Gnorm:      0.000463  CPU:    0.710
  Cycle:     96 Energy:      -424.981631  Gnorm:      0.000449  CPU:    0.713
  Cycle:     97 Energy:      -424.981633  Gnorm:      0.000716  CPU:    0.717
  Cycle:     98 Energy:      -424.981634  Gnorm:      0.000440  CPU:    0.723
  Cycle:     99 Energy:      -424.981634  Gnorm:      0.000359  CPU:    0.741
  Cycle:    100 Energy:      -424.981635  Gnorm:      0.000415  CPU:    0.746
  Cycle:    101 Energy:      -424.981635  Gnorm:      0.001047  CPU:    0.751
  Cycle:    102 Energy:      -424.981637  Gnorm:      0.000395  CPU:    0.756
  Cycle:    103 Energy:      -424.981637  Gnorm:      0.000291  CPU:    0.759
  Cycle:    104 Energy:      -424.981638  Gnorm:      0.000364  CPU:    0.762
  Cycle:    105 Energy:      -424.981639  Gnorm:      0.000374  CPU:    0.783
  Cycle:    106 Energy:      -424.981639  Gnorm:      0.000653  CPU:    0.791
  Cycle:    107 Energy:      -424.981640  Gnorm:      0.000285  CPU:    0.796
  Cycle:    108 Energy:      -424.981641  Gnorm:      0.000237  CPU:    0.799
  Cycle:    109 Energy:      -424.981641  Gnorm:      0.000411  CPU:    0.803
  Cycle:    110 Energy:      -424.981641  Gnorm:      0.000526  CPU:    0.816
  Cycle:    111 Energy:      -424.981642  Gnorm:      0.000284  CPU:    0.828
  Cycle:    112 Energy:      -424.981642  Gnorm:      0.000283  CPU:    0.835
  Cycle:    113 Energy:      -424.981643  Gnorm:      0.000329  CPU:    0.848
  Cycle:    114 Energy:      -424.981643  Gnorm:      0.000906  CPU:    0.861
  Cycle:    115 Energy:      -424.981644  Gnorm:      0.000313  CPU:    0.866


  **** Optimisation achieved ****


  Final energy =    -424.98164438 eV
  Final Gnorm  =       0.00023595

  Components of energy : 

--------------------------------------------------------------------------------
  Interatomic potentials     =           0.00000000 eV    
  Brenner potentials         =        -424.98164438 eV    
  Monopole - monopole (real) =           0.00000000 eV    
  Monopole - monopole (recip)=           0.00000000 eV    
  Monopole - monopole (total)=           0.00000000 eV    
--------------------------------------------------------------------------------
  Total lattice energy       =        -424.98164438 eV    
--------------------------------------------------------------------------------
  Total lattice energy       =          -41004.2322 kJ/(mole unit cells)
--------------------------------------------------------------------------------

  Final fractional coordinates of atoms :

--------------------------------------------------------------------------------
   No.  Atomic        x           y          z          Radius
        Label       (Frac)      (Frac)     (Frac)       (Angs) 
--------------------------------------------------------------------------------
     1  C     c     0.082860    0.546420    0.420470    0.000000
     2  C     c     0.303726    0.097860    0.160920    0.000000
     3  C     c     0.133527    0.398048    0.320872    0.000000
     4  C     c     0.908364    0.926250    0.503563    0.000000
     5  C     c     0.500410    0.887593    0.036609    0.000000
     6  C     c     0.816701    0.440938    0.294033    0.000000
     7  C     c     0.946967    0.605883    0.765597    0.000000
     8  C     c     0.843394    0.517924    0.633152    0.000000
     9  C     c     0.156560    0.348337    0.693159    0.000000
    10  C     c     0.420882    0.733563    0.170875    0.000000
    11  C     c     0.915077    0.220683    0.792603    0.000000
    12  C     c     0.599079    0.868836    0.597347    0.000000
    13  C     c     0.452865    0.213691    0.669493    0.000000
    14  C     c     0.228344    0.958925    0.856908    0.000000
    15  C     c     0.545447    0.576265    0.449091    0.000000
    16  C     c     0.015716    0.921848    0.169021    0.000000
    17  C     c     0.174483    0.793361    0.922872    0.000000
    18  C     c     0.323374    0.692093    0.651140    0.000000
    19  C     c     0.764706    0.346531    0.716292    0.000000
    20  C     c     0.064647    0.226936    0.316135    0.000000
    21  C     c     0.941876    0.138166    0.454401    0.000000
    22  C     c     0.884382    0.572420    0.443395    0.000000
    23  C     c     0.486472    0.795280    0.723570    0.000000
    24  C     c     0.802096    0.235136    0.307001    0.000000
    25  C     c     0.723094    0.150952    0.114598    0.000000
    26  C     c     0.532058    0.571482    0.126402    0.000000
    27  C     c     0.625501    0.264123    0.584874    0.000000
    28  C     c     0.665526    0.956848    0.161662    0.000000
    29  C     c     0.514393    0.875456    0.297991    0.000000
    30  C     c     0.372107    0.033796    0.974908    0.000000
    31  C     c     0.840686    0.083170    0.942215    0.000000
    32  C     c     0.886030    0.737687    0.881680    0.000000
    33  C     c     0.332855    0.370145    0.629432    0.000000
    34  C     c     0.238493    0.666645    0.238938    0.000000
    35  C     c     0.099744    0.482176    0.831494    0.000000
    36  C     c     0.359623    0.061331    0.562785    0.000000
    37  C     c     0.206708    0.708186    0.458649    0.000000
    38  C     c     0.580081    0.283172    0.003083    0.000000
    39  C     c     0.098989    0.110701    0.156601    0.000000
    40  C     c     0.785174    0.913672    0.848539    0.000000
    41  C     c     0.408172    0.526861    0.563736    0.000000
    42  C     c     0.098172    0.866052    0.549337    0.000000
    43  C     c     0.073312    0.412553    0.021091    0.000000
    44  C     c     0.241203    0.457342    0.155723    0.000000
    45  C     c     0.202483    0.655828    0.807016    0.000000
    46  C     c     0.919661    0.503409    0.130416    0.000000
    47  C     c     0.831939    0.832273    0.196139    0.000000
    48  C     c     0.017907    0.212164    0.994250    0.000000
    49  C     c     0.814878    0.769444    0.391918    0.000000
    50  C     c     0.837752    0.672008    0.066252    0.000000
    51  C     c     0.188571    0.009657    0.660624    0.000000
    52  C     c     0.459704    0.216519    0.274710    0.000000
    53  C     c     0.434763    0.379631    0.138166    0.000000
    54  C     c     0.391773    0.028327    0.357296    0.000000
    55  C     c     0.621801    0.242883    0.404691    0.000000
    56  C     c     0.470022    0.174119    0.872673    0.000000
    57  C     c     0.673284    0.424659    0.888433    0.000000
    58  C     c     0.763229    0.937176    0.651396    0.000000
    59  C     c     0.135186    0.787184    0.106154    0.000000
    60  C     c     0.615942    0.489359    0.295368    0.000000
    61  C     c     0.611334    0.770196    0.434052    0.000000
    62  C     c     0.050401    0.171562    0.644176    0.000000
    63  C     c     0.656773    0.611311    0.973178    0.000000
    64  C     c     0.599529    0.794257    0.891129    0.000000
--------------------------------------------------------------------------------

  Final internal derivatives :

--------------------------------------------------------------------------------
   No.  Atomic          a             b             c           Radius
        Label          (eV)          (eV)          (eV)        (eV/Angs)
--------------------------------------------------------------------------------
      1 C     c       0.000000      0.000000      0.000000      0.000000
      2 C     c       0.003544     -0.003333      0.001507      0.000000
      3 C     c      -0.004170      0.002561      0.002808      0.000000
      4 C     c      -0.001165     -0.001502      0.007436      0.000000
      5 C     c      -0.000246     -0.001610     -0.004187      0.000000
      6 C     c       0.003129     -0.006431      0.001341      0.000000
      7 C     c      -0.006511      0.003208      0.000023      0.000000
      8 C     c       0.002443     -0.000202     -0.001556      0.000000
      9 C     c       0.003566     -0.001387     -0.005269      0.000000
     10 C     c       0.007540     -0.002826      0.000902      0.000000
     11 C     c       0.001296     -0.000434     -0.003296      0.000000
     12 C     c       0.003478     -0.000209      0.002871      0.000000
     13 C     c       0.001245      0.003079     -0.003074      0.000000
     14 C     c      -0.001606      0.006087     -0.001324      0.000000
     15 C     c       0.001145     -0.002166      0.005705      0.000000
     16 C     c       0.002368      0.002581      0.000063      0.000000
     17 C     c       0.001554      0.003745      0.000021      0.000000
     18 C     c      -0.001703      0.001596      0.000732      0.000000
     19 C     c       0.007233     -0.000442      0.001107      0.000000
     20 C     c      -0.001627      0.002999      0.001269      0.000000
     21 C     c      -0.000664     -0.001156     -0.003624      0.000000
     22 C     c      -0.001631      0.000494     -0.000204      0.000000
     23 C     c      -0.001923     -0.000605     -0.000403      0.000000
     24 C     c       0.002121     -0.002875      0.004700      0.000000
     25 C     c      -0.003437     -0.003690     -0.006312      0.000000
     26 C     c       0.006075      0.004555     -0.001138      0.000000
     27 C     c       0.001410      0.001297     -0.000632      0.000000
     28 C     c      -0.002393     -0.000083     -0.002117      0.000000
     29 C     c      -0.000107     -0.005285     -0.000415      0.000000
     30 C     c       0.005554     -0.004425     -0.004015      0.000000
     31 C     c       0.002738      0.001101     -0.004244      0.000000
     32 C     c      -0.003811      0.000836      0.003266      0.000000
     33 C     c       0.001923      0.000113     -0.001067      0.000000
     34 C     c       0.004027      0.005456      0.005177      0.000000
     35 C     c      -0.002927     -0.002385     -0.006658      0.000000
     36 C     c       0.001164     -0.004901      0.005126      0.000000
     37 C     c      -0.004879     -0.004290     -0.008647      0.000000
     38 C     c       0.003537     -0.007151      0.001776      0.000000
     39 C     c       0.003799      0.004509     -0.001895      0.000000
     40 C     c       0.000237     -0.003439     -0.002955      0.000000
     41 C     c      -0.003458      0.000262      0.001735      0.000000
     42 C     c      -0.000154      0.002481      0.003314      0.000000
     43 C     c      -0.001457     -0.003604     -0.005690      0.000000
     44 C     c       0.002984     -0.003020      0.006920      0.000000
     45 C     c       0.000649      0.001363      0.001796      0.000000
     46 C     c       0.002811     -0.000817      0.004527      0.000000
     47 C     c       0.002553      0.000214      0.000048      0.000000
     48 C     c       0.003745     -0.000078     -0.005074      0.000000
     49 C     c       0.002292     -0.004553      0.002313      0.000000
     50 C     c       0.002842     -0.002594      0.000836      0.000000
     51 C     c      -0.000794      0.002196      0.003033      0.000000
     52 C     c      -0.001787      0.003387     -0.003817      0.000000
     53 C     c       0.003878      0.001773     -0.003172      0.000000
     54 C     c       0.001412      0.001396      0.003928      0.000000
     55 C     c      -0.003332     -0.002635      0.000357      0.000000
     56 C     c       0.001151     -0.001585      0.002221      0.000000
     57 C     c      -0.002304     -0.003792     -0.001528      0.000000
     58 C     c       0.003886     -0.006596      0.003228      0.000000
     59 C     c       0.002998      0.002682      0.000779      0.000000
     60 C     c       0.001798      0.005295     -0.001894      0.000000
     61 C     c       0.001243      0.001511      0.002218      0.000000
     62 C     c       0.002191     -0.001717     -0.005462      0.000000
     63 C     c       0.004176      0.000697      0.000623      0.000000
     64 C     c       0.001546     -0.004379      0.000659      0.000000
--------------------------------------------------------------------------------
  Maximum abs         0.007540      0.007151      0.008647      0.000000
--------------------------------------------------------------------------------


  Time to end of optimisation =       0.8702 seconds


  Peak dynamic memory used =       2.01 MB 


  Timing analysis for GULP :

--------------------------------------------------------------------------------
  Task / Subroutine                                          Time (Seconds)
--------------------------------------------------------------------------------
  Calculation of Brenner energy and derivatives                   0.8480
--------------------------------------------------------------------------------
  Total CPU time                                                  0.8702
--------------------------------------------------------------------------------


  CIF file written as opti_1.0150.cif


  Job Finished at 16:20.15 12th August     2020                               

