********************************************************************************
*                       GENERAL UTILITY LATTICE PROGRAM                        *
*                                 Julian Gale                                  *
*                       Curtin Institute for Computation                       *
*                    School of Molecular and Life Sciences                     *
*                    Curtin University, Western Australia                      *
********************************************************************************
* Version = 5.2.0 * Last modified =  17th December 2019                        *
********************************************************************************
*  optimise     - perform optimisation run                                     *
*  conv         - constant volume calculation                                  *
*  isotropic    - only isotropic cell expansion to be allowed                  *
*  conjugate    - use conjugate gradients minimiser                            *
********************************************************************************
* ASE calculation                                                              *
********************************************************************************


  Job Started  at 16:48.29 11th August     2020                               

  Number of CPUs =     1


  Total number of configurations input =      1

********************************************************************************
*  Input for Configuration =   1                                               *
********************************************************************************

  Formula = C64                                                         

  Number of irreducible atoms/shells =      64


  Total number atoms/shells =      64

  Dimensionality = 3               :  Bulk   



  Cartesian lattice vectors (Angstroms) :

        7.646736    0.000000    0.000000
        0.000000    7.646736    0.000000
        0.000000    0.000000    7.646736

  Cell parameters (Angstroms/Degrees):

  a =       7.6467    alpha =  90.0000
  b =       7.6467    beta  =  90.0000
  c =       7.6467    gamma =  90.0000

  Initial cell volume =         447.124317 Angs**3

  Temperature of configuration =   0.00     K 

  Pressure of configuration =         0.000 GPa 

  Fractional coordinates of asymmetric unit :

--------------------------------------------------------------------------------
   No.  Atomic       x           y          z         Charge      Occupancy
        Label      (Frac)      (Frac)     (Frac)        (e)         (Frac)  
--------------------------------------------------------------------------------
      1 C     c    0.025100    0.587150    0.365320     0.00000    1.000000    
      2 C     c    0.261960 *  0.102350 *  0.107880 *   0.00000    1.000000    
      3 C     c    0.100080 *  0.438460 *  0.267700 *   0.00000    1.000000    
      4 C     c    0.878960 *  0.966820 *  0.452800 *   0.00000    1.000000    
      5 C     c    0.476970 *  0.917400 *  0.988740 *   0.00000    1.000000    
      6 C     c    0.786990 *  0.447150 *  0.220140 *   0.00000    1.000000    
      7 C     c    0.923040 *  0.637520 *  0.717050 *   0.00000    1.000000    
      8 C     c    0.810170 *  0.554560 *  0.590260 *   0.00000    1.000000    
      9 C     c    0.131790 *  0.380040 *  0.638710 *   0.00000    1.000000    
     10 C     c    0.404270 *  0.764550 *  0.117610 *   0.00000    1.000000    
     11 C     c    0.889700 *  0.256980 *  0.746610 *   0.00000    1.000000    
     12 C     c    0.569910 *  0.900620 *  0.557400 *   0.00000    1.000000    
     13 C     c    0.425650 *  0.240870 *  0.632440 *   0.00000    1.000000    
     14 C     c    0.200020 *  0.983730 *  0.798590 *   0.00000    1.000000    
     15 C     c    0.523060 *  0.608540 *  0.406760 *   0.00000    1.000000    
     16 C     c    0.987720 *  0.938200 *  0.121300 *   0.00000    1.000000    
     17 C     c    0.134680 *  0.821550 *  0.858210 *   0.00000    1.000000    
     18 C     c    0.347750 *  0.690110 *  0.662490 *   0.00000    1.000000    
     19 C     c    0.738190 *  0.384180 *  0.683430 *   0.00000    1.000000    
     20 C     c    0.046450 *  0.258110 *  0.266300 *   0.00000    1.000000    
     21 C     c    0.936080 *  0.173340 *  0.419850 *   0.00000    1.000000    
     22 C     c    0.843300 *  0.615880 *  0.414970 *   0.00000    1.000000    
     23 C     c    0.478470 *  0.818970 *  0.689890 *   0.00000    1.000000    
     24 C     c    0.794120 *  0.296780 *  0.327440 *   0.00000    1.000000    
     25 C     c    0.669440 *  0.161030 *  0.017330 *   0.00000    1.000000    
     26 C     c    0.520340 *  0.604650 *  0.088340 *   0.00000    1.000000    
     27 C     c    0.606080 *  0.280540 *  0.571440 *   0.00000    1.000000    
     28 C     c    0.633890 *  0.989520 *  0.119020 *   0.00000    1.000000    
     29 C     c    0.479160 *  0.916090 *  0.251290 *   0.00000    1.000000    
     30 C     c    0.339390 *  0.056680 *  0.923070 *   0.00000    1.000000    
     31 C     c    0.810280 *  0.113020 *  0.884120 *   0.00000    1.000000    
     32 C     c    0.867950 *  0.767490 *  0.838090 *   0.00000    1.000000    
     33 C     c    0.307470 *  0.395320 *  0.575810 *   0.00000    1.000000    
     34 C     c    0.226620 *  0.687030 *  0.123410 *   0.00000    1.000000    
     35 C     c    0.071610 *  0.510040 *  0.779400 *   0.00000    1.000000    
     36 C     c    0.326190 *  0.102150 *  0.509580 *   0.00000    1.000000    
     37 C     c    0.121970 *  0.741100 *  0.423810 *   0.00000    1.000000    
     38 C     c    0.542650 *  0.314790 *  0.957100 *   0.00000    1.000000    
     39 C     c    0.063420 *  0.131370 *  0.109250 *   0.00000    1.000000    
     40 C     c    0.769650 *  0.942180 *  0.796810 *   0.00000    1.000000    
     41 C     c    0.392750 *  0.558230 *  0.534200 *   0.00000    1.000000    
     42 C     c    0.068180 *  0.896530 *  0.498720 *   0.00000    1.000000    
     43 C     c    0.001700 *  0.428840 *  0.954850 *   0.00000    1.000000    
     44 C     c    0.238470 *  0.500650 *  0.156150 *   0.00000    1.000000    
     45 C     c    0.195650 *  0.672080 *  0.768160 *   0.00000    1.000000    
     46 C     c    0.892950 *  0.519810 *  0.081840 *   0.00000    1.000000    
     47 C     c    0.799980 *  0.863030 *  0.155410 *   0.00000    1.000000    
     48 C     c    0.985830 *  0.222010 *  0.949250 *   0.00000    1.000000    
     49 C     c    0.775600 *  0.805360 *  0.350140 *   0.00000    1.000000    
     50 C     c    0.821570 *  0.700470 *  0.025360 *   0.00000    1.000000    
     51 C     c    0.158980 *  0.041530 *  0.607950 *   0.00000    1.000000    
     52 C     c    0.476040 *  0.263670 *  0.276630 *   0.00000    1.000000    
     53 C     c    0.434680 *  0.399100 *  0.122780 *   0.00000    1.000000    
     54 C     c    0.365660 *  0.086630 *  0.294640 *   0.00000    1.000000    
     55 C     c    0.624160 *  0.266270 *  0.391710 *   0.00000    1.000000    
     56 C     c    0.422290 *  0.211340 *  0.832230 *   0.00000    1.000000    
     57 C     c    0.643820 *  0.455720 *  0.850330 *   0.00000    1.000000    
     58 C     c    0.737120 *  0.967710 *  0.602660 *   0.00000    1.000000    
     59 C     c    0.099210 *  0.802470 *  0.043610 *   0.00000    1.000000    
     60 C     c    0.617730 *  0.536110 *  0.254430 *   0.00000    1.000000    
     61 C     c    0.572990 *  0.809180 *  0.390000 *   0.00000    1.000000    
     62 C     c    0.027000 *  0.208410 *  0.602340 *   0.00000    1.000000    
     63 C     c    0.640770 *  0.641500 *  0.932270 *   0.00000    1.000000    
     64 C     c    0.588560 *  0.824650 *  0.852350 *   0.00000    1.000000    
--------------------------------------------------------------------------------


  Constraints : 

--------------------------------------------------------------------------------
  Constraint no.      Unconstrained     Constrained    Coefficient    Offset
                         Variable         Variable
--------------------------------------------------------------------------------
           1              Strain 1        Strain 2       1.00000      0.0000
           2              Strain 1        Strain 3       1.00000      0.0000
--------------------------------------------------------------------------------


********************************************************************************
*  General input information                                                   *
********************************************************************************

  Species output for all configurations : 

--------------------------------------------------------------------------------
  Species    Type    Atomic    Atomic    Charge       Radii (Angs)     Library
                     Number     Mass       (e)     Cova   Ionic  VDW   Symbol
--------------------------------------------------------------------------------
    C        Core        6      12.01   0.000000   0.770  0.000  1.530          
--------------------------------------------------------------------------------


  Lattice summation method               =    Ewald          (3-D)
                                         =    Parry          (2-D)
                                         =    Saunders et al (1-D)
  Accuracy factor for lattice sums       =   12.000


  Analytic derivatives to be used

  Time limit = Infinity

  Maximum range for interatomic potentials =    100000.000000 Angstroms

  Brenner et al 2002 potential to be used with explicit splines for P


********************************************************************************
*  Output for configuration   1                                                *
********************************************************************************


  Components of energy : 

--------------------------------------------------------------------------------
  Interatomic potentials     =           0.00000000 eV    
  Brenner potentials         =        -428.02874407 eV    
  Monopole - monopole (real) =           0.00000000 eV    
  Monopole - monopole (recip)=           0.00000000 eV    
  Monopole - monopole (total)=           0.00000000 eV    
--------------------------------------------------------------------------------
  Total lattice energy       =        -428.02874407 eV    
--------------------------------------------------------------------------------
  Total lattice energy       =          -41298.2308 kJ/(mole unit cells)
--------------------------------------------------------------------------------


  Number of variables =      189

  Maximum number of calculations  =          2000
  Maximum Hessian update interval =            10
  Maximum step size               =   1.000000000
  Maximum parameter tolerance     =   0.000010000
  Maximum function  tolerance     =   0.000010000
  Maximum gradient  tolerance     =   0.001000000
  Maximum gradient  component     =   0.010000000

  Symmetry not applied to optimisation

  Conjugate gradient optimiser to be used

  Lower half triangular hessian to be used

  Start of bulk optimisation :

  Cycle:      0 Energy:      -428.028744  Gnorm:      0.162612  CPU:    0.028
  Cycle:      1 Energy:      -428.085376  Gnorm:      0.076596  CPU:    0.038
  Cycle:      2 Energy:      -428.104465  Gnorm:      0.077315  CPU:    0.065
  Cycle:      3 Energy:      -428.123685  Gnorm:      0.067118  CPU:    0.074
  Cycle:      4 Energy:      -428.134521  Gnorm:      0.045018  CPU:    0.099
  Cycle:      5 Energy:      -428.143578  Gnorm:      0.050447  CPU:    0.114
  Cycle:      6 Energy:      -428.150280  Gnorm:      0.045941  CPU:    0.133
  Cycle:      7 Energy:      -428.154517  Gnorm:      0.034406  CPU:    0.157
  Cycle:      8 Energy:      -428.159185  Gnorm:      0.025340  CPU:    0.184
  Cycle:      9 Energy:      -428.161648  Gnorm:      0.028663  CPU:    0.198
  Cycle:     10 Energy:      -428.162655  Gnorm:      0.014377  CPU:    0.220
  Cycle:     11 Energy:      -428.163506  Gnorm:      0.013578  CPU:    0.231
  Cycle:     12 Energy:      -428.164038  Gnorm:      0.015868  CPU:    0.254
  Cycle:     13 Energy:      -428.165496  Gnorm:      0.016202  CPU:    0.264
  Cycle:     14 Energy:      -428.166515  Gnorm:      0.014660  CPU:    0.288
  Cycle:     15 Energy:      -428.167059  Gnorm:      0.013226  CPU:    0.296
  Cycle:     16 Energy:      -428.167418  Gnorm:      0.009288  CPU:    0.321
  Cycle:     17 Energy:      -428.167750  Gnorm:      0.007832  CPU:    0.335
  Cycle:     18 Energy:      -428.167979  Gnorm:      0.007188  CPU:    0.355
  Cycle:     19 Energy:      -428.168113  Gnorm:      0.007048  CPU:    0.368
  Cycle:     20 Energy:      -428.168188  Gnorm:      0.004645  CPU:    0.387
  Cycle:     21 Energy:      -428.168264  Gnorm:      0.004335  CPU:    0.406
  Cycle:     22 Energy:      -428.168331  Gnorm:      0.004525  CPU:    0.439
  Cycle:     23 Energy:      -428.168393  Gnorm:      0.004599  CPU:    0.447
  Cycle:     24 Energy:      -428.168486  Gnorm:      0.004987  CPU:    0.473
  Cycle:     25 Energy:      -428.168565  Gnorm:      0.004608  CPU:    0.482
  Cycle:     26 Energy:      -428.168662  Gnorm:      0.003695  CPU:    0.505
  Cycle:     27 Energy:      -428.168707  Gnorm:      0.004235  CPU:    0.514
  Cycle:     28 Energy:      -428.168757  Gnorm:      0.003579  CPU:    0.545
  Cycle:     29 Energy:      -428.168814  Gnorm:      0.004890  CPU:    0.562
  Cycle:     30 Energy:      -428.168849  Gnorm:      0.002621  CPU:    0.569
  Cycle:     31 Energy:      -428.168873  Gnorm:      0.002821  CPU:    0.596
  Cycle:     32 Energy:      -428.168893  Gnorm:      0.002363  CPU:    0.603
  Cycle:     33 Energy:      -428.168921  Gnorm:      0.002976  CPU:    0.629
  Cycle:     34 Energy:      -428.168943  Gnorm:      0.002727  CPU:    0.637
  Cycle:     35 Energy:      -428.168979  Gnorm:      0.002673  CPU:    0.662
  Cycle:     36 Energy:      -428.169007  Gnorm:      0.002459  CPU:    0.686
  Cycle:     37 Energy:      -428.169035  Gnorm:      0.002543  CPU:    0.695
  Cycle:     38 Energy:      -428.169056  Gnorm:      0.002573  CPU:    0.714
  Cycle:     39 Energy:      -428.169078  Gnorm:      0.003382  CPU:    0.727
  Cycle:     40 Energy:      -428.169094  Gnorm:      0.002103  CPU:    0.733
  Cycle:     41 Energy:      -428.169108  Gnorm:      0.001978  CPU:    0.762
  Cycle:     42 Energy:      -428.169123  Gnorm:      0.001851  CPU:    0.798
  Cycle:     43 Energy:      -428.169138  Gnorm:      0.002033  CPU:    0.811
  Cycle:     44 Energy:      -428.169153  Gnorm:      0.002547  CPU:    0.837
  Cycle:     45 Energy:      -428.169168  Gnorm:      0.002284  CPU:    0.863
  Cycle:     46 Energy:      -428.169191  Gnorm:      0.002077  CPU:    0.873
  Cycle:     47 Energy:      -428.169202  Gnorm:      0.002149  CPU:    0.899
  Cycle:     48 Energy:      -428.169222  Gnorm:      0.002020  CPU:    0.908
  Cycle:     49 Energy:      -428.169237  Gnorm:      0.002283  CPU:    0.935
  Cycle:     50 Energy:      -428.169249  Gnorm:      0.001842  CPU:    0.952
  Cycle:     51 Energy:      -428.169259  Gnorm:      0.001846  CPU:    0.967
  Cycle:     52 Energy:      -428.169268  Gnorm:      0.001618  CPU:    0.974
  Cycle:     53 Energy:      -428.169279  Gnorm:      0.001800  CPU:    0.998
  Cycle:     54 Energy:      -428.169289  Gnorm:      0.002128  CPU:    1.006
  Cycle:     55 Energy:      -428.169302  Gnorm:      0.001765  CPU:    1.029
  Cycle:     56 Energy:      -428.169315  Gnorm:      0.001417  CPU:    1.040
  Cycle:     57 Energy:      -428.169323  Gnorm:      0.001937  CPU:    1.066
  Cycle:     58 Energy:      -428.169335  Gnorm:      0.001746  CPU:    1.076
  Cycle:     59 Energy:      -428.169343  Gnorm:      0.001729  CPU:    1.099
  Cycle:     60 Energy:      -428.169349  Gnorm:      0.001399  CPU:    1.109
  Cycle:     61 Energy:      -428.169357  Gnorm:      0.001779  CPU:    1.134
  Cycle:     62 Energy:      -428.169362  Gnorm:      0.001056  CPU:    1.143
  Cycle:     63 Energy:      -428.169370  Gnorm:      0.001450  CPU:    1.166
  Cycle:     64 Energy:      -428.169376  Gnorm:      0.001609  CPU:    1.177
  Cycle:     65 Energy:      -428.169386  Gnorm:      0.001515  CPU:    1.193
  Cycle:     66 Energy:      -428.169395  Gnorm:      0.001368  CPU:    1.212
  Cycle:     67 Energy:      -428.169404  Gnorm:      0.001736  CPU:    1.228
  Cycle:     68 Energy:      -428.169414  Gnorm:      0.002128  CPU:    1.246
  Cycle:     69 Energy:      -428.169432  Gnorm:      0.002578  CPU:    1.253
  Cycle:     70 Energy:      -428.169441  Gnorm:      0.001352  CPU:    1.278
  Cycle:     71 Energy:      -428.169446  Gnorm:      0.001060  CPU:    1.288
  Cycle:     72 Energy:      -428.169450  Gnorm:      0.001292  CPU:    1.315
  Cycle:     73 Energy:      -428.169456  Gnorm:      0.001445  CPU:    1.337
  Cycle:     74 Energy:      -428.169466  Gnorm:      0.001504  CPU:    1.350
  Cycle:     75 Energy:      -428.169469  Gnorm:      0.001167  CPU:    1.370
  Cycle:     76 Energy:      -428.169474  Gnorm:      0.001270  CPU:    1.384
  Cycle:     77 Energy:      -428.169477  Gnorm:      0.001052  CPU:    1.397
  Cycle:     78 Energy:      -428.169485  Gnorm:      0.001153  CPU:    1.421
  Cycle:     79 Energy:      -428.169488  Gnorm:      0.001354  CPU:    1.442
  Cycle:     80 Energy:      -428.169490  Gnorm:      0.000930  CPU:    1.460
  Cycle:     81 Energy:      -428.169494  Gnorm:      0.000860  CPU:    1.480
  Cycle:     82 Energy:      -428.169496  Gnorm:      0.001243  CPU:    1.501
  Cycle:     83 Energy:      -428.169499  Gnorm:      0.001069  CPU:    1.508
  Cycle:     84 Energy:      -428.169501  Gnorm:      0.000729  CPU:    1.533
  Cycle:     85 Energy:      -428.169503  Gnorm:      0.000803  CPU:    1.549
  Cycle:     86 Energy:      -428.169506  Gnorm:      0.000796  CPU:    1.567
  Cycle:     87 Energy:      -428.169507  Gnorm:      0.000720  CPU:    1.575
  Cycle:     88 Energy:      -428.169512  Gnorm:      0.001629  CPU:    1.601
  Cycle:     89 Energy:      -428.169527  Gnorm:      0.002557  CPU:    1.614
  Cycle:     90 Energy:      -428.169542  Gnorm:      0.000937  CPU:    1.636
  Cycle:     91 Energy:      -428.169544  Gnorm:      0.000657  CPU:    1.649
  Cycle:     92 Energy:      -428.169546  Gnorm:      0.000773  CPU:    1.681
  Cycle:     93 Energy:      -428.169548  Gnorm:      0.000697  CPU:    1.696
  Cycle:     94 Energy:      -428.169549  Gnorm:      0.000598  CPU:    1.708
  Cycle:     95 Energy:      -428.169550  Gnorm:      0.000420  CPU:    1.727
  Cycle:     96 Energy:      -428.169551  Gnorm:      0.000344  CPU:    1.745
  Cycle:     97 Energy:      -428.169552  Gnorm:      0.000355  CPU:    1.769
  Cycle:     98 Energy:      -428.169553  Gnorm:      0.000699  CPU:    1.788
  Cycle:     99 Energy:      -428.169560  Gnorm:      0.001804  CPU:    1.817
  Cycle:    100 Energy:      -428.169564  Gnorm:      0.000715  CPU:    1.835
  Cycle:    101 Energy:      -428.169566  Gnorm:      0.000983  CPU:    1.851
  Cycle:    102 Energy:      -428.169569  Gnorm:      0.000528  CPU:    1.878
  Cycle:    103 Energy:      -428.169570  Gnorm:      0.000434  CPU:    1.886
  Cycle:    104 Energy:      -428.169570  Gnorm:      0.000421  CPU:    1.910
  Cycle:    105 Energy:      -428.169571  Gnorm:      0.000308  CPU:    1.919
  Cycle:    106 Energy:      -428.169571  Gnorm:      0.000299  CPU:    1.944
  Cycle:    107 Energy:      -428.169572  Gnorm:      0.000647  CPU:    1.974
  Cycle:    108 Energy:      -428.169576  Gnorm:      0.001317  CPU:    1.992
  Cycle:    109 Energy:      -428.169579  Gnorm:      0.000891  CPU:    2.009
  Cycle:    110 Energy:      -428.169580  Gnorm:      0.000457  CPU:    2.025
  Cycle:    111 Energy:      -428.169580  Gnorm:      0.000427  CPU:    2.041
  Cycle:    112 Energy:      -428.169581  Gnorm:      0.000379  CPU:    2.048
  Cycle:    113 Energy:      -428.169581  Gnorm:      0.000369  CPU:    2.072
  Cycle:    114 Energy:      -428.169582  Gnorm:      0.000905  CPU:    2.093
  Cycle:    115 Energy:      -428.169584  Gnorm:      0.000477  CPU:    2.110
  Cycle:    116 Energy:      -428.169585  Gnorm:      0.000524  CPU:    2.117
  Cycle:    117 Energy:      -428.169586  Gnorm:      0.000706  CPU:    2.141
  Cycle:    118 Energy:      -428.169587  Gnorm:      0.000570  CPU:    2.150
  Cycle:    119 Energy:      -428.169588  Gnorm:      0.000432  CPU:    2.172
  Cycle:    120 Energy:      -428.169588  Gnorm:      0.000306  CPU:    2.183
  Cycle:    121 Energy:      -428.169588  Gnorm:      0.000298  CPU:    2.208
  Cycle:    122 Energy:      -428.169588  Gnorm:      0.000298  CPU:    2.218
  Cycle:    123 Energy:      -428.169591  Gnorm:      0.000658  CPU:    2.246
  Cycle:    124 Energy:      -428.169591  Gnorm:      0.000643  CPU:    2.270
  Cycle:    125 Energy:      -428.169593  Gnorm:      0.000857  CPU:    2.280
  Cycle:    126 Energy:      -428.169596  Gnorm:      0.000633  CPU:    2.305
  Cycle:    127 Energy:      -428.169597  Gnorm:      0.000570  CPU:    2.314
  Cycle:    128 Energy:      -428.169598  Gnorm:      0.000489  CPU:    2.334
  Cycle:    129 Energy:      -428.169598  Gnorm:      0.000541  CPU:    2.346
  Cycle:    130 Energy:      -428.169599  Gnorm:      0.000304  CPU:    2.369
  Cycle:    131 Energy:      -428.169599  Gnorm:      0.000268  CPU:    2.378
  Cycle:    132 Energy:      -428.169600  Gnorm:      0.000256  CPU:    2.395


  **** Optimisation achieved ****


  Final energy =    -428.16959998 eV
  Final Gnorm  =       0.00023273

  Components of energy : 

--------------------------------------------------------------------------------
  Interatomic potentials     =           0.00000000 eV    
  Brenner potentials         =        -428.16959998 eV    
  Monopole - monopole (real) =           0.00000000 eV    
  Monopole - monopole (recip)=           0.00000000 eV    
  Monopole - monopole (total)=           0.00000000 eV    
--------------------------------------------------------------------------------
  Total lattice energy       =        -428.16959998 eV    
--------------------------------------------------------------------------------
  Total lattice energy       =          -41311.8212 kJ/(mole unit cells)
--------------------------------------------------------------------------------

  Final fractional coordinates of atoms :

--------------------------------------------------------------------------------
   No.  Atomic        x           y          z          Radius
        Label       (Frac)      (Frac)     (Frac)       (Angs) 
--------------------------------------------------------------------------------
     1  C     c     0.025100    0.587150    0.365320    0.000000
     2  C     c     0.260509    0.101882    0.106444    0.000000
     3  C     c     0.099917    0.439568    0.266991    0.000000
     4  C     c     0.879186    0.967204    0.452565    0.000000
     5  C     c     0.477937    0.915580    0.988978    0.000000
     6  C     c     0.785742    0.448317    0.221573    0.000000
     7  C     c     0.919190    0.633681    0.717694    0.000000
     8  C     c     0.810354    0.550885    0.589117    0.000000
     9  C     c     0.132682    0.380325    0.639797    0.000000
    10  C     c     0.405854    0.763257    0.117251    0.000000
    11  C     c     0.888183    0.253874    0.745761    0.000000
    12  C     c     0.572552    0.895221    0.556814    0.000000
    13  C     c     0.425276    0.240633    0.631839    0.000000
    14  C     c     0.202620    0.981766    0.797439    0.000000
    15  C     c     0.521527    0.607374    0.405838    0.000000
    16  C     c     0.988972    0.937027    0.119035    0.000000
    17  C     c     0.139082    0.820223    0.858207    0.000000
    18  C     c     0.350015    0.687901    0.663261    0.000000
    19  C     c     0.737219    0.381892    0.682973    0.000000
    20  C     c     0.043296    0.260246    0.264545    0.000000
    21  C     c     0.936041    0.174716    0.419995    0.000000
    22  C     c     0.843904    0.614168    0.415154    0.000000
    23  C     c     0.481164    0.815078    0.688947    0.000000
    24  C     c     0.794135    0.298933    0.328913    0.000000
    25  C     c     0.668159    0.157526    0.014411    0.000000
    26  C     c     0.520436    0.603561    0.088407    0.000000
    27  C     c     0.605000    0.280321    0.570729    0.000000
    28  C     c     0.635551    0.986829    0.117517    0.000000
    29  C     c     0.481294    0.915341    0.249275    0.000000
    30  C     c     0.340289    0.055272    0.922959    0.000000
    31  C     c     0.808943    0.110223    0.881938    0.000000
    32  C     c     0.861956    0.762631    0.837124    0.000000
    33  C     c     0.307731    0.395287    0.577588    0.000000
    34  C     c     0.228605    0.686954    0.123470    0.000000
    35  C     c     0.071198    0.511737    0.778781    0.000000
    36  C     c     0.325711    0.103182    0.508243    0.000000
    37  C     c     0.118607    0.741998    0.424023    0.000000
    38  C     c     0.542686    0.313374    0.956413    0.000000
    39  C     c     0.061901    0.132533    0.107821    0.000000
    40  C     c     0.768859    0.939386    0.795658    0.000000
    41  C     c     0.392978    0.557061    0.534632    0.000000
    42  C     c     0.067653    0.897547    0.497749    0.000000
    43  C     c     0.997997    0.428913    0.954060    0.000000
    44  C     c     0.239958    0.501296    0.158058    0.000000
    45  C     c     0.198794    0.670439    0.769252    0.000000
    46  C     c     0.889858    0.518554    0.081460    0.000000
    47  C     c     0.802076    0.860689    0.153599    0.000000
    48  C     c     0.982223    0.222524    0.947715    0.000000
    49  C     c     0.776337    0.804289    0.348999    0.000000
    50  C     c     0.819426    0.698399    0.025099    0.000000
    51  C     c     0.159278    0.041414    0.607123    0.000000
    52  C     c     0.478038    0.263186    0.275930    0.000000
    53  C     c     0.435103    0.400041    0.123109    0.000000
    54  C     c     0.367641    0.086239    0.290748    0.000000
    55  C     c     0.624381    0.266909    0.391971    0.000000
    56  C     c     0.422997    0.209330    0.831686    0.000000
    57  C     c     0.643706    0.453853    0.849925    0.000000
    58  C     c     0.737982    0.963125    0.601954    0.000000
    59  C     c     0.102689    0.802751    0.042912    0.000000
    60  C     c     0.616338    0.535500    0.254092    0.000000
    61  C     c     0.573896    0.807090    0.388331    0.000000
    62  C     c     0.027093    0.209904    0.603087    0.000000
    63  C     c     0.639586    0.639000    0.932351    0.000000
    64  C     c     0.588373    0.822302    0.852317    0.000000
--------------------------------------------------------------------------------

  Final internal derivatives :

--------------------------------------------------------------------------------
   No.  Atomic          a             b             c           Radius
        Label          (eV)          (eV)          (eV)        (eV/Angs)
--------------------------------------------------------------------------------
      1 C     c       0.000000      0.000000      0.000000      0.000000
      2 C     c       0.001613      0.004460      0.001845      0.000000
      3 C     c       0.001417      0.002901     -0.000319      0.000000
      4 C     c       0.001001      0.004028      0.001739      0.000000
      5 C     c       0.000638      0.004907      0.003812      0.000000
      6 C     c       0.000204      0.002591     -0.000002      0.000000
      7 C     c       0.002915      0.006208      0.001370      0.000000
      8 C     c       0.001140      0.004492      0.003743      0.000000
      9 C     c       0.001898      0.004402      0.003101      0.000000
     10 C     c       0.001608      0.004330      0.003522      0.000000
     11 C     c       0.001222      0.005468      0.002602      0.000000
     12 C     c       0.001919      0.004793      0.003290      0.000000
     13 C     c       0.001049      0.004837      0.002675      0.000000
     14 C     c       0.001900      0.003973      0.002632      0.000000
     15 C     c       0.001487      0.004796      0.002799      0.000000
     16 C     c       0.001554      0.004872      0.001395      0.000000
     17 C     c       0.001153      0.004406      0.002662      0.000000
     18 C     c       0.001625      0.004816      0.002389      0.000000
     19 C     c       0.000749      0.004806      0.002987      0.000000
     20 C     c       0.002584      0.003221      0.003080      0.000000
     21 C     c       0.001515      0.003751      0.001066      0.000000
     22 C     c       0.000942      0.003960      0.004568      0.000000
     23 C     c       0.001929      0.004652      0.002369      0.000000
     24 C     c       0.002028      0.004445      0.002086      0.000000
     25 C     c       0.001636      0.005447      0.002659      0.000000
     26 C     c       0.001850      0.005406      0.002647      0.000000
     27 C     c       0.000779      0.004984      0.003036      0.000000
     28 C     c       0.002430      0.004509      0.002896      0.000000
     29 C     c       0.001847      0.004703      0.001350      0.000000
     30 C     c       0.001339      0.004645      0.002261      0.000000
     31 C     c       0.001696      0.004678      0.002416      0.000000
     32 C     c       0.003047      0.005457      0.002870      0.000000
     33 C     c       0.001466      0.004588      0.002075      0.000000
     34 C     c       0.001467      0.004106      0.002611      0.000000
     35 C     c       0.002153      0.004758      0.002381      0.000000
     36 C     c       0.002384      0.005360      0.002073      0.000000
     37 C     c       0.002236      0.002195      0.001176      0.000000
     38 C     c       0.002177      0.005547      0.002053      0.000000
     39 C     c       0.001749      0.003314      0.002243      0.000000
     40 C     c       0.001889      0.004112      0.003020      0.000000
     41 C     c       0.001820      0.004542      0.002674      0.000000
     42 C     c       0.001174      0.002743      0.002443      0.000000
     43 C     c       0.001952      0.003555      0.002430      0.000000
     44 C     c       0.004754      0.002678      0.000997      0.000000
     45 C     c       0.001690      0.004933      0.002616      0.000000
     46 C     c       0.001787      0.004414      0.002661      0.000000
     47 C     c       0.002204      0.005277      0.003051      0.000000
     48 C     c       0.001566      0.003182      0.002252      0.000000
     49 C     c       0.002086      0.004421      0.002947      0.000000
     50 C     c       0.001262      0.004813      0.002459      0.000000
     51 C     c       0.002947      0.003190      0.002080      0.000000
     52 C     c       0.001722      0.004883      0.002275      0.000000
     53 C     c      -0.002207      0.003900      0.001904      0.000000
     54 C     c       0.000891      0.005321      0.002892      0.000000
     55 C     c       0.001520      0.005480      0.002996      0.000000
     56 C     c       0.001809      0.004579      0.002491      0.000000
     57 C     c       0.002642      0.004850      0.002611      0.000000
     58 C     c       0.002388      0.003900      0.002381      0.000000
     59 C     c       0.001126      0.003952      0.002613      0.000000
     60 C     c       0.003218      0.006205      0.004465      0.000000
     61 C     c       0.001924      0.004463      0.002678      0.000000
     62 C     c       0.001764      0.003703      0.001135      0.000000
     63 C     c       0.000921      0.004212      0.002218      0.000000
     64 C     c       0.002587      0.005647      0.002478      0.000000
--------------------------------------------------------------------------------
  Maximum abs         0.004754      0.006208      0.004568      0.000000
--------------------------------------------------------------------------------


  Time to end of optimisation =       2.4112 seconds


  Peak dynamic memory used =       1.98 MB 


  Timing analysis for GULP :

--------------------------------------------------------------------------------
  Task / Subroutine                                          Time (Seconds)
--------------------------------------------------------------------------------
  Calculation of Brenner energy and derivatives                   2.3667
--------------------------------------------------------------------------------
  Total CPU time                                                  2.4112
--------------------------------------------------------------------------------


  CIF file written as opti_1.0150.cif


  Job Finished at 16:48.31 11th August     2020                               

