********************************************************************************
*                       GENERAL UTILITY LATTICE PROGRAM                        *
*                                 Julian Gale                                  *
*                       Curtin Institute for Computation                       *
*                    School of Molecular and Life Sciences                     *
*                    Curtin University, Western Australia                      *
********************************************************************************
* Version = 5.2.0 * Last modified =  17th December 2019                        *
********************************************************************************
*  optimise     - perform optimisation run                                     *
*  conv         - constant volume calculation                                  *
*  isotropic    - only isotropic cell expansion to be allowed                  *
*  lbfgs        - use limited memory BFGS update                               *
********************************************************************************
* ASE calculation                                                              *
********************************************************************************


  Job Started  at 14:17.08 31st July       2020                               

  Number of CPUs =     1


  Total number of configurations input =      1

********************************************************************************
*  Input for Configuration =   1                                               *
********************************************************************************

  Formula = C64                                                         

  Number of irreducible atoms/shells =      64


  Total number atoms/shells =      64

  Dimensionality = 3               :  Bulk   



  Cartesian lattice vectors (Angstroms) :

        7.593579    0.000000    0.000000
        0.000000    7.593579    0.000000
        0.000000    0.000000    7.593579

  Cell parameters (Angstroms/Degrees):

  a =       7.5936    alpha =  90.0000
  b =       7.5936    beta  =  90.0000
  c =       7.5936    gamma =  90.0000

  Initial cell volume =         437.864309 Angs**3

  Temperature of configuration =   0.00     K 

  Pressure of configuration =         0.000 GPa 

  Fractional coordinates of asymmetric unit :

--------------------------------------------------------------------------------
   No.  Atomic       x           y          z         Charge      Occupancy
        Label      (Frac)      (Frac)     (Frac)        (e)         (Frac)  
--------------------------------------------------------------------------------
      1 C     c    0.035780    0.526170    0.339890     0.00000    1.000000    
      2 C     c    0.229590 *  0.062470 *  0.070680 *   0.00000    1.000000    
      3 C     c    0.086740 *  0.372580 *  0.241540 *   0.00000    1.000000    
      4 C     c    0.849890 *  0.908360 *  0.422460 *   0.00000    1.000000    
      5 C     c    0.441280 *  0.873720 *  0.947590 *   0.00000    1.000000    
      6 C     c    0.787440 *  0.429530 *  0.218620 *   0.00000    1.000000    
      7 C     c    0.901960 *  0.595110 *  0.684440 *   0.00000    1.000000    
      8 C     c    0.792250 *  0.510990 *  0.553950 *   0.00000    1.000000    
      9 C     c    0.109330 *  0.341370 *  0.597450 *   0.00000    1.000000    
     10 C     c    0.368560 *  0.720100 *  0.087270 *   0.00000    1.000000    
     11 C     c    0.859240 *  0.209770 *  0.708270 *   0.00000    1.000000    
     12 C     c    0.544100 *  0.861310 *  0.508880 *   0.00000    1.000000    
     13 C     c    0.399810 *  0.199970 *  0.585870 *   0.00000    1.000000    
     14 C     c    0.169580 *  0.946440 *  0.765170 *   0.00000    1.000000    
     15 C     c    0.498500 *  0.562480 *  0.365890 *   0.00000    1.000000    
     16 C     c    0.950810 *  0.898420 *  0.079280 *   0.00000    1.000000    
     17 C     c    0.116990 *  0.779030 *  0.831300 *   0.00000    1.000000    
     18 C     c    0.273570 *  0.686230 *  0.563680 *   0.00000    1.000000    
     19 C     c    0.707320 *  0.344640 *  0.642410 *   0.00000    1.000000    
     20 C     c    0.019610 *  0.197340 *  0.239350 *   0.00000    1.000000    
     21 C     c    0.914960 *  0.113770 *  0.392490 *   0.00000    1.000000    
     22 C     c    0.837630 *  0.564860 *  0.366020 *   0.00000    1.000000    
     23 C     c    0.432980 *  0.789650 *  0.634100 *   0.00000    1.000000    
     24 C     c    0.769260 *  0.240060 *  0.292990 *   0.00000    1.000000    
     25 C     c    0.643930 *  0.119910 *  0.979490 *   0.00000    1.000000    
     26 C     c    0.485730 *  0.554490 *  0.047940 *   0.00000    1.000000    
     27 C     c    0.577200 *  0.241410 *  0.526410 *   0.00000    1.000000    
     28 C     c    0.601420 *  0.945080 *  0.073870 *   0.00000    1.000000    
     29 C     c    0.456300 *  0.873520 *  0.209870 *   0.00000    1.000000    
     30 C     c    0.305050 *  0.022220 *  0.885080 *   0.00000    1.000000    
     31 C     c    0.783880 *  0.070020 *  0.850190 *   0.00000    1.000000    
     32 C     c    0.845150 *  0.726130 *  0.803670 *   0.00000    1.000000    
     33 C     c    0.277250 *  0.359650 *  0.526010 *   0.00000    1.000000    
     34 C     c    0.192240 *  0.651360 *  0.147020 *   0.00000    1.000000    
     35 C     c    0.059800 *  0.466190 *  0.745160 *   0.00000    1.000000    
     36 C     c    0.299400 *  0.059080 *  0.468830 *   0.00000    1.000000    
     37 C     c    0.158120 *  0.690640 *  0.365300 *   0.00000    1.000000    
     38 C     c    0.510810 *  0.270950 *  0.909310 *   0.00000    1.000000    
     39 C     c    0.030260 *  0.084690 *  0.074760 *   0.00000    1.000000    
     40 C     c    0.731350 *  0.898160 *  0.760240 *   0.00000    1.000000    
     41 C     c    0.354530 *  0.518850 *  0.467700 *   0.00000    1.000000    
     42 C     c    0.050530 *  0.856680 *  0.457030 *   0.00000    1.000000    
     43 C     c    0.032710 *  0.391020 *  0.935900 *   0.00000    1.000000    
     44 C     c    0.198350 *  0.432400 *  0.080030 *   0.00000    1.000000    
     45 C     c    0.156630 *  0.641120 *  0.718440 *   0.00000    1.000000    
     46 C     c    0.878180 *  0.482020 *  0.050850 *   0.00000    1.000000    
     47 C     c    0.770670 *  0.816050 *  0.111880 *   0.00000    1.000000    
     48 C     c    0.956570 *  0.195360 *  0.913820 *   0.00000    1.000000    
     49 C     c    0.760580 *  0.757830 *  0.309070 *   0.00000    1.000000    
     50 C     c    0.784460 *  0.652370 *  0.979350 *   0.00000    1.000000    
     51 C     c    0.134860 *  0.001610 *  0.567360 *   0.00000    1.000000    
     52 C     c    0.449340 *  0.221950 *  0.230520 *   0.00000    1.000000    
     53 C     c    0.398790 *  0.353120 *  0.068820 *   0.00000    1.000000    
     54 C     c    0.340680 *  0.047910 *  0.256940 *   0.00000    1.000000    
     55 C     c    0.598360 *  0.221420 *  0.346800 *   0.00000    1.000000    
     56 C     c    0.391290 *  0.170980 *  0.786620 *   0.00000    1.000000    
     57 C     c    0.608190 *  0.415170 *  0.804460 *   0.00000    1.000000    
     58 C     c    0.706980 *  0.925380 *  0.564050 *   0.00000    1.000000    
     59 C     c    0.070550 *  0.762920 *  0.012520 *   0.00000    1.000000    
     60 C     c    0.578950 *  0.471410 *  0.218930 *   0.00000    1.000000    
     61 C     c    0.558470 *  0.760510 *  0.348430 *   0.00000    1.000000    
     62 C     c    0.998680 *  0.176400 *  0.572620 *   0.00000    1.000000    
     63 C     c    0.602800 *  0.596610 *  0.896230 *   0.00000    1.000000    
     64 C     c    0.545760 *  0.785700 *  0.804830 *   0.00000    1.000000    
--------------------------------------------------------------------------------


  Constraints : 

--------------------------------------------------------------------------------
  Constraint no.      Unconstrained     Constrained    Coefficient    Offset
                         Variable         Variable
--------------------------------------------------------------------------------
           1              Strain 1        Strain 2       1.00000      0.0000
           2              Strain 1        Strain 3       1.00000      0.0000
--------------------------------------------------------------------------------


********************************************************************************
*  General input information                                                   *
********************************************************************************

  Species output for all configurations : 

--------------------------------------------------------------------------------
  Species    Type    Atomic    Atomic    Charge       Radii (Angs)     Library
                     Number     Mass       (e)     Cova   Ionic  VDW   Symbol
--------------------------------------------------------------------------------
    C        Core        6      12.01   0.000000   0.770  0.000  1.530          
--------------------------------------------------------------------------------


  Lattice summation method               =    Ewald          (3-D)
                                         =    Parry          (2-D)
                                         =    Saunders et al (1-D)
  Accuracy factor for lattice sums       =   12.000


  Analytic derivatives to be used

  Time limit = Infinity

  Maximum range for interatomic potentials =    100000.000000 Angstroms

  Brenner et al 2002 potential to be used with explicit splines for P


********************************************************************************
*  Output for configuration   1                                                *
********************************************************************************


  Components of energy : 

--------------------------------------------------------------------------------
  Interatomic potentials     =           0.00000000 eV    
  Brenner potentials         =        -421.95416623 eV    
  Monopole - monopole (real) =           0.00000000 eV    
  Monopole - monopole (recip)=           0.00000000 eV    
  Monopole - monopole (total)=           0.00000000 eV    
--------------------------------------------------------------------------------
  Total lattice energy       =        -421.95416623 eV    
--------------------------------------------------------------------------------
  Total lattice energy       =          -40712.1269 kJ/(mole unit cells)
--------------------------------------------------------------------------------


  Number of variables =      189

  Maximum number of calculations  =          2000
  Maximum Hessian update interval =            10
  Maximum step size               =   1.000000000
  Maximum parameter tolerance     =   0.000010000
  Maximum function  tolerance     =   0.000010000
  Maximum gradient  tolerance     =   0.001000000
  Maximum gradient  component     =   0.010000000

  Maximum LM gradient tolerance   =   0.900000000
  Symmetry not applied to optimisation

  Limited Memory BFGS to be used of order   10

  BFGS hessian update to be used

  Lower half triangular hessian to be used

  Start of bulk optimisation :

  Cycle:      0 Energy:      -421.954166  Gnorm:      0.445309  CPU:    0.041
  Cycle:      1 Energy:      -422.128495  Gnorm:      0.362936  CPU:    0.060
  Cycle:      2 Energy:      -422.629964  Gnorm:      0.196669  CPU:    0.083
  Cycle:      3 Energy:      -422.736396  Gnorm:      0.183942  CPU:    0.093
  Cycle:      4 Energy:      -422.825938  Gnorm:      0.119415  CPU:    0.100
  Cycle:      5 Energy:      -422.891340  Gnorm:      0.100986  CPU:    0.105
  Cycle:      6 Energy:      -422.941626  Gnorm:      0.147288  CPU:    0.110
  Cycle:      7 Energy:      -422.987668  Gnorm:      0.076806  CPU:    0.129
  Cycle:      8 Energy:      -423.005832  Gnorm:      0.079030  CPU:    0.142
  Cycle:      9 Energy:      -423.026323  Gnorm:      0.051785  CPU:    0.149
  Cycle:     10 Energy:      -423.049648  Gnorm:      0.048846  CPU:    0.154
  Cycle:     11 Energy:      -423.065281  Gnorm:      0.067597  CPU:    0.159
  Cycle:     12 Energy:      -423.079084  Gnorm:      0.045484  CPU:    0.176
  Cycle:     13 Energy:      -423.087587  Gnorm:      0.035330  CPU:    0.203
  Cycle:     14 Energy:      -423.094839  Gnorm:      0.041276  CPU:    0.221
  Cycle:     15 Energy:      -423.100425  Gnorm:      0.029662  CPU:    0.247
  Cycle:     16 Energy:      -423.105664  Gnorm:      0.029088  CPU:    0.256
  Cycle:     17 Energy:      -423.110934  Gnorm:      0.027100  CPU:    0.262
  Cycle:     18 Energy:      -423.112802  Gnorm:      0.027751  CPU:    0.269
  Cycle:     19 Energy:      -423.114702  Gnorm:      0.015670  CPU:    0.284
  Cycle:     20 Energy:      -423.115980  Gnorm:      0.014571  CPU:    0.301
  Cycle:     21 Energy:      -423.117308  Gnorm:      0.020058  CPU:    0.308
  Cycle:     22 Energy:      -423.118432  Gnorm:      0.018549  CPU:    0.314
  Cycle:     23 Energy:      -423.119349  Gnorm:      0.011995  CPU:    0.318
  Cycle:     24 Energy:      -423.120494  Gnorm:      0.012261  CPU:    0.329
  Cycle:     25 Energy:      -423.121580  Gnorm:      0.012762  CPU:    0.350
  Cycle:     26 Energy:      -423.121954  Gnorm:      0.038012  CPU:    0.357
  Cycle:     27 Energy:      -423.123953  Gnorm:      0.011541  CPU:    0.363
  Cycle:     28 Energy:      -423.124560  Gnorm:      0.009359  CPU:    0.368
  Cycle:     29 Energy:      -423.125541  Gnorm:      0.013180  CPU:    0.375
  Cycle:     30 Energy:      -423.126428  Gnorm:      0.027936  CPU:    0.401
  Cycle:     31 Energy:      -423.127725  Gnorm:      0.015335  CPU:    0.408
  Cycle:     32 Energy:      -423.129125  Gnorm:      0.012909  CPU:    0.414
  Cycle:     33 Energy:      -423.130302  Gnorm:      0.015620  CPU:    0.418
  Cycle:     34 Energy:      -423.132609  Gnorm:      0.017265  CPU:    0.443
  Cycle:     35 Energy:      -423.133753  Gnorm:      0.026655  CPU:    0.454
  Cycle:     36 Energy:      -423.135557  Gnorm:      0.014134  CPU:    0.459
  Cycle:     37 Energy:      -423.136978  Gnorm:      0.012547  CPU:    0.464
  Cycle:     38 Energy:      -423.138523  Gnorm:      0.017226  CPU:    0.481
  Cycle:     39 Energy:      -423.139515  Gnorm:      0.022838  CPU:    0.500
  Cycle:     40 Energy:      -423.140729  Gnorm:      0.012748  CPU:    0.506
  Cycle:     41 Energy:      -423.141733  Gnorm:      0.010066  CPU:    0.511
  Cycle:     42 Energy:      -423.142562  Gnorm:      0.010417  CPU:    0.516
  Cycle:     43 Energy:      -423.143453  Gnorm:      0.017662  CPU:    0.540
  Cycle:     44 Energy:      -423.144111  Gnorm:      0.013125  CPU:    0.549
  Cycle:     45 Energy:      -423.144494  Gnorm:      0.007102  CPU:    0.556
  Cycle:     46 Energy:      -423.144756  Gnorm:      0.007078  CPU:    0.561
  Cycle:     47 Energy:      -423.145170  Gnorm:      0.007636  CPU:    0.565
  Cycle:     48 Energy:      -423.145436  Gnorm:      0.012660  CPU:    0.594
  Cycle:     49 Energy:      -423.145843  Gnorm:      0.006257  CPU:    0.602
  Cycle:     50 Energy:      -423.146075  Gnorm:      0.005347  CPU:    0.608
  Cycle:     51 Energy:      -423.146304  Gnorm:      0.011322  CPU:    0.613
  Cycle:     52 Energy:      -423.146530  Gnorm:      0.006273  CPU:    0.638
  Cycle:     53 Energy:      -423.146688  Gnorm:      0.005278  CPU:    0.646
  Cycle:     54 Energy:      -423.146872  Gnorm:      0.005874  CPU:    0.652
  Cycle:     55 Energy:      -423.146975  Gnorm:      0.008578  CPU:    0.659
  Cycle:     56 Energy:      -423.147118  Gnorm:      0.005703  CPU:    0.677
  Cycle:     57 Energy:      -423.147296  Gnorm:      0.004054  CPU:    0.691
  Cycle:     58 Energy:      -423.147457  Gnorm:      0.005003  CPU:    0.699
  Cycle:     59 Energy:      -423.147704  Gnorm:      0.007144  CPU:    0.704
  Cycle:     60 Energy:      -423.147939  Gnorm:      0.010290  CPU:    0.709
  Cycle:     61 Energy:      -423.148207  Gnorm:      0.006419  CPU:    0.723
  Cycle:     62 Energy:      -423.148482  Gnorm:      0.005973  CPU:    0.741
  Cycle:     63 Energy:      -423.148681  Gnorm:      0.007230  CPU:    0.748
  Cycle:     64 Energy:      -423.149055  Gnorm:      0.010085  CPU:    0.753
  Cycle:     65 Energy:      -423.149431  Gnorm:      0.007726  CPU:    0.758
  Cycle:     66 Energy:      -423.149804  Gnorm:      0.008044  CPU:    0.769
  Cycle:     67 Energy:      -423.150142  Gnorm:      0.011086  CPU:    0.790
  Cycle:     68 Energy:      -423.150519  Gnorm:      0.007632  CPU:    0.797
  Cycle:     69 Energy:      -423.150964  Gnorm:      0.008453  CPU:    0.803
  Cycle:     70 Energy:      -423.151305  Gnorm:      0.014707  CPU:    0.808
  Cycle:     71 Energy:      -423.151641  Gnorm:      0.007824  CPU:    0.833
  Cycle:     72 Energy:      -423.151977  Gnorm:      0.006584  CPU:    0.841
  Cycle:     73 Energy:      -423.152299  Gnorm:      0.007898  CPU:    0.847
  Cycle:     74 Energy:      -423.152693  Gnorm:      0.012026  CPU:    0.867
  Cycle:     75 Energy:      -423.152756  Gnorm:      0.016403  CPU:    0.878
  Cycle:     76 Energy:      -423.153123  Gnorm:      0.005146  CPU:    0.885
  Cycle:     77 Energy:      -423.153220  Gnorm:      0.004500  CPU:    0.895
  Cycle:     78 Energy:      -423.153394  Gnorm:      0.004197  CPU:    0.919
  Cycle:     79 Energy:      -423.153594  Gnorm:      0.007672  CPU:    0.927
  Cycle:     80 Energy:      -423.153710  Gnorm:      0.006439  CPU:    0.933
  Cycle:     81 Energy:      -423.153773  Gnorm:      0.003306  CPU:    0.937
  Cycle:     82 Energy:      -423.153834  Gnorm:      0.002427  CPU:    0.944
  Cycle:     83 Energy:      -423.153904  Gnorm:      0.003636  CPU:    0.969
  Cycle:     84 Energy:      -423.153931  Gnorm:      0.006794  CPU:    0.977
  Cycle:     85 Energy:      -423.153987  Gnorm:      0.002593  CPU:    0.982
  Cycle:     86 Energy:      -423.154015  Gnorm:      0.001963  CPU:    0.987
  Cycle:     87 Energy:      -423.154039  Gnorm:      0.002428  CPU:    0.992
  Cycle:     88 Energy:      -423.154064  Gnorm:      0.003419  CPU:    1.018
  Cycle:     89 Energy:      -423.154078  Gnorm:      0.002511  CPU:    1.026
  Cycle:     90 Energy:      -423.154093  Gnorm:      0.001299  CPU:    1.032
  Cycle:     91 Energy:      -423.154107  Gnorm:      0.001433  CPU:    1.037
  Cycle:     92 Energy:      -423.154123  Gnorm:      0.001572  CPU:    1.041
  Cycle:     93 Energy:      -423.154152  Gnorm:      0.002280  CPU:    1.067
  Cycle:     94 Energy:      -423.154163  Gnorm:      0.001885  CPU:    1.079
  Cycle:     95 Energy:      -423.154171  Gnorm:      0.000965  CPU:    1.084
  Cycle:     96 Energy:      -423.154176  Gnorm:      0.001098  CPU:    1.089
  Cycle:     97 Energy:      -423.154181  Gnorm:      0.001388  CPU:    1.108
  Cycle:     98 Energy:      -423.154184  Gnorm:      0.003503  CPU:    1.122
  Cycle:     99 Energy:      -423.154198  Gnorm:      0.001608  CPU:    1.129
  Cycle:    100 Energy:      -423.154207  Gnorm:      0.001302  CPU:    1.134
  Cycle:    101 Energy:      -423.154217  Gnorm:      0.001507  CPU:    1.139
  Cycle:    102 Energy:      -423.154234  Gnorm:      0.001693  CPU:    1.157
  Cycle:    103 Energy:      -423.154241  Gnorm:      0.004355  CPU:    1.171
  Cycle:    104 Energy:      -423.154268  Gnorm:      0.001236  CPU:    1.179
  Cycle:    105 Energy:      -423.154276  Gnorm:      0.001007  CPU:    1.184
  Cycle:    106 Energy:      -423.154291  Gnorm:      0.001446  CPU:    1.189
  Cycle:    107 Energy:      -423.154300  Gnorm:      0.003543  CPU:    1.206
  Cycle:    108 Energy:      -423.154315  Gnorm:      0.001491  CPU:    1.221
  Cycle:    109 Energy:      -423.154322  Gnorm:      0.000990  CPU:    1.228
  Cycle:    110 Energy:      -423.154327  Gnorm:      0.000991  CPU:    1.234
  Cycle:    111 Energy:      -423.154335  Gnorm:      0.001009  CPU:    1.239
  Cycle:    112 Energy:      -423.154338  Gnorm:      0.001120  CPU:    1.266
  Cycle:    113 Energy:      -423.154341  Gnorm:      0.000711  CPU:    1.275
  Cycle:    114 Energy:      -423.154345  Gnorm:      0.000740  CPU:    1.281
  Cycle:    115 Energy:      -423.154347  Gnorm:      0.000797  CPU:    1.288
  Cycle:    116 Energy:      -423.154350  Gnorm:      0.000539  CPU:    1.303
  Cycle:    117 Energy:      -423.154352  Gnorm:      0.000469  CPU:    1.321
  Cycle:    118 Energy:      -423.154352  Gnorm:      0.001025  CPU:    1.328
  Cycle:    119 Energy:      -423.154353  Gnorm:      0.000387  CPU:    1.334
  Cycle:    120 Energy:      -423.154353  Gnorm:      0.000270  CPU:    1.338
  Cycle:    121 Energy:      -423.154353  Gnorm:      0.000255  CPU:    1.353
  Cycle:    122 Energy:      -423.154354  Gnorm:      0.000301  CPU:    1.371
  Cycle:    123 Energy:      -423.154354  Gnorm:      0.000362  CPU:    1.378
  Cycle:    124 Energy:      -423.154355  Gnorm:      0.000263  CPU:    1.383
  Cycle:    125 Energy:      -423.154355  Gnorm:      0.000377  CPU:    1.388
  Cycle:    126 Energy:      -423.154356  Gnorm:      0.000242  CPU:    1.414
  Cycle:    127 Energy:      -423.154356  Gnorm:      0.000231  CPU:    1.422
  Cycle:    128 Energy:      -423.154356  Gnorm:      0.000266  CPU:    1.428
  Cycle:    129 Energy:      -423.154357  Gnorm:      0.000390  CPU:    1.435
  Cycle:    130 Energy:      -423.154357  Gnorm:      0.000214  CPU:    1.457


  **** Optimisation achieved ****


  Final energy =    -423.15435784 eV
  Final Gnorm  =       0.00018856

  Components of energy : 

--------------------------------------------------------------------------------
  Interatomic potentials     =           0.00000000 eV    
  Brenner potentials         =        -423.15435784 eV    
  Monopole - monopole (real) =           0.00000000 eV    
  Monopole - monopole (recip)=           0.00000000 eV    
  Monopole - monopole (total)=           0.00000000 eV    
--------------------------------------------------------------------------------
  Total lattice energy       =        -423.15435784 eV    
--------------------------------------------------------------------------------
  Total lattice energy       =          -40827.9270 kJ/(mole unit cells)
--------------------------------------------------------------------------------

  Final fractional coordinates of atoms :

--------------------------------------------------------------------------------
   No.  Atomic        x           y          z          Radius
        Label       (Frac)      (Frac)     (Frac)       (Angs) 
--------------------------------------------------------------------------------
     1  C     c     0.035780    0.526170    0.339890    0.000000
     2  C     c     0.239813    0.056191    0.074916    0.000000
     3  C     c     0.086006    0.374244    0.243238    0.000000
     4  C     c     0.860889    0.908122    0.420214    0.000000
     5  C     c     0.448191    0.861111    0.954112    0.000000
     6  C     c     0.782596    0.426495    0.220311    0.000000
     7  C     c     0.905807    0.582566    0.688619    0.000000
     8  C     c     0.796908    0.498520    0.557578    0.000000
     9  C     c     0.116784    0.328069    0.613135    0.000000
    10  C     c     0.371409    0.709479    0.092421    0.000000
    11  C     c     0.868728    0.203238    0.715909    0.000000
    12  C     c     0.550990    0.849770    0.516192    0.000000
    13  C     c     0.405458    0.189563    0.594508    0.000000
    14  C     c     0.177003    0.930125    0.773147    0.000000
    15  C     c     0.501389    0.558337    0.369416    0.000000
    16  C     c     0.960496    0.894698    0.086243    0.000000
    17  C     c     0.125012    0.765935    0.842067    0.000000
    18  C     c     0.278800    0.668196    0.571202    0.000000
    19  C     c     0.717362    0.330221    0.647614    0.000000
    20  C     c     0.025616    0.198359    0.240913    0.000000
    21  C     c     0.915969    0.116137    0.393885    0.000000
    22  C     c     0.836853    0.561096    0.368710    0.000000
    23  C     c     0.441456    0.773089    0.642501    0.000000
    24  C     c     0.774761    0.241020    0.292657    0.000000
    25  C     c     0.649181    0.108412    0.984140    0.000000
    26  C     c     0.484003    0.546982    0.051205    0.000000
    27  C     c     0.584989    0.229065    0.530812    0.000000
    28  C     c     0.609751    0.934607    0.079580    0.000000
    29  C     c     0.460997    0.862195    0.215354    0.000000
    30  C     c     0.316647    0.006006    0.891328    0.000000
    31  C     c     0.792838    0.059187    0.852853    0.000000
    32  C     c     0.845663    0.714940    0.803597    0.000000
    33  C     c     0.291529    0.348236    0.548048    0.000000
    34  C     c     0.190843    0.641398    0.160963    0.000000
    35  C     c     0.058361    0.457013    0.753538    0.000000
    36  C     c     0.308163    0.047658    0.478598    0.000000
    37  C     c     0.161253    0.686706    0.379980    0.000000
    38  C     c     0.520866    0.257655    0.917594    0.000000
    39  C     c     0.039954    0.082223    0.077773    0.000000
    40  C     c     0.741816    0.886306    0.763189    0.000000
    41  C     c     0.365915    0.505144    0.483397    0.000000
    42  C     c     0.052937    0.847998    0.463675    0.000000
    43  C     c     0.030651    0.386548    0.944103    0.000000
    44  C     c     0.202034    0.430820    0.081563    0.000000
    45  C     c     0.161349    0.628867    0.729103    0.000000
    46  C     c     0.876954    0.481555    0.052175    0.000000
    47  C     c     0.777375    0.810335    0.114902    0.000000
    48  C     c     0.966058    0.186501    0.918514    0.000000
    49  C     c     0.764347    0.752948    0.311830    0.000000
    50  C     c     0.788656    0.647485    0.984581    0.000000
    51  C     c     0.140311    0.989364    0.579681    0.000000
    52  C     c     0.451305    0.211261    0.236025    0.000000
    53  C     c     0.404770    0.339417    0.074883    0.000000
    54  C     c     0.345091    0.031223    0.262011    0.000000
    55  C     c     0.601470    0.215379    0.349703    0.000000
    56  C     c     0.403526    0.153596    0.793624    0.000000
    57  C     c     0.618547    0.401252    0.812542    0.000000
    58  C     c     0.717141    0.912074    0.568424    0.000000
    59  C     c     0.082729    0.760298    0.025899    0.000000
    60  C     c     0.579039    0.472932    0.218285    0.000000
    61  C     c     0.559673    0.754722    0.351456    0.000000
    62  C     c     0.008663    0.157865    0.574768    0.000000
    63  C     c     0.606637    0.586133    0.896854    0.000000
    64  C     c     0.554051    0.770535    0.810431    0.000000
--------------------------------------------------------------------------------

  Final internal derivatives :

--------------------------------------------------------------------------------
   No.  Atomic          a             b             c           Radius
        Label          (eV)          (eV)          (eV)        (eV/Angs)
--------------------------------------------------------------------------------
      1 C     c       0.000000      0.000000      0.000000      0.000000
      2 C     c      -0.005506      0.002100      0.003509      0.000000
      3 C     c      -0.001316     -0.002592     -0.000791      0.000000
      4 C     c       0.002564     -0.001162      0.001697      0.000000
      5 C     c      -0.000090     -0.000586      0.001143      0.000000
      6 C     c      -0.002244      0.001297      0.003509      0.000000
      7 C     c      -0.005167     -0.001625     -0.000159      0.000000
      8 C     c      -0.002009      0.001356      0.002007      0.000000
      9 C     c      -0.003088      0.000907      0.000398      0.000000
     10 C     c      -0.000703      0.002451      0.005038      0.000000
     11 C     c       0.004954      0.001014      0.004281      0.000000
     12 C     c       0.001361      0.002999      0.002381      0.000000
     13 C     c      -0.000829     -0.001077      0.001270      0.000000
     14 C     c      -0.006752     -0.000847     -0.000320      0.000000
     15 C     c      -0.005561      0.000810     -0.001491      0.000000
     16 C     c      -0.000896     -0.001049      0.000999      0.000000
     17 C     c      -0.001349     -0.000408      0.000150      0.000000
     18 C     c      -0.002277     -0.000874      0.000458      0.000000
     19 C     c      -0.001668      0.002181      0.000844      0.000000
     20 C     c       0.000081     -0.003985      0.001348      0.000000
     21 C     c      -0.002866     -0.000749     -0.000054      0.000000
     22 C     c       0.000049      0.002780      0.001303      0.000000
     23 C     c      -0.000744      0.000276      0.000068      0.000000
     24 C     c      -0.000603     -0.000061      0.002297      0.000000
     25 C     c       0.000090      0.003253     -0.001641      0.000000
     26 C     c      -0.001597     -0.001122     -0.001385      0.000000
     27 C     c      -0.001045      0.001142      0.000680      0.000000
     28 C     c      -0.003012      0.002748     -0.001371      0.000000
     29 C     c       0.000972      0.001249      0.006827      0.000000
     30 C     c      -0.007078     -0.000316      0.003747      0.000000
     31 C     c       0.003013      0.003019     -0.001021      0.000000
     32 C     c       0.001297      0.001429      0.001815      0.000000
     33 C     c      -0.001806     -0.001432      0.001691      0.000000
     34 C     c       0.003865     -0.001909     -0.007109      0.000000
     35 C     c      -0.001415     -0.000418      0.003240      0.000000
     36 C     c      -0.000578     -0.000020     -0.001275      0.000000
     37 C     c      -0.000600      0.001324      0.003206      0.000000
     38 C     c       0.000860     -0.000629      0.001258      0.000000
     39 C     c      -0.004759      0.001229     -0.001965      0.000000
     40 C     c      -0.003497      0.000014     -0.001418      0.000000
     41 C     c      -0.000611     -0.002028      0.002458      0.000000
     42 C     c       0.007294      0.000152     -0.004347      0.000000
     43 C     c       0.003380     -0.001912      0.003169      0.000000
     44 C     c       0.001836     -0.002868     -0.001349      0.000000
     45 C     c       0.006022      0.000940      0.003926      0.000000
     46 C     c      -0.002904      0.001362     -0.001052      0.000000
     47 C     c      -0.003132     -0.001048      0.005363      0.000000
     48 C     c       0.000941     -0.001486     -0.000443      0.000000
     49 C     c      -0.000119      0.001262     -0.000350      0.000000
     50 C     c      -0.004294      0.003480      0.003446      0.000000
     51 C     c       0.002346     -0.003156     -0.002823      0.000000
     52 C     c      -0.004882     -0.000963      0.001479      0.000000
     53 C     c      -0.005841      0.001290      0.005294      0.000000
     54 C     c       0.004275     -0.002781      0.001514      0.000000
     55 C     c      -0.002498      0.000662      0.000015      0.000000
     56 C     c      -0.004013     -0.000682      0.002933      0.000000
     57 C     c       0.000300     -0.004220      0.003267      0.000000
     58 C     c       0.002409      0.001515      0.000802      0.000000
     59 C     c       0.000820     -0.000260     -0.002471      0.000000
     60 C     c      -0.001585      0.001348     -0.000149      0.000000
     61 C     c       0.001581      0.001927      0.003499      0.000000
     62 C     c       0.000162     -0.005920      0.002624      0.000000
     63 C     c       0.000132      0.000538     -0.001117      0.000000
     64 C     c      -0.002782     -0.001032      0.000277      0.000000
--------------------------------------------------------------------------------
  Maximum abs         0.007294      0.005920      0.007109      0.000000
--------------------------------------------------------------------------------


  Time to end of optimisation =       1.4688 seconds


  Peak dynamic memory used =       2.01 MB 


  Timing analysis for GULP :

--------------------------------------------------------------------------------
  Task / Subroutine                                          Time (Seconds)
--------------------------------------------------------------------------------
  Calculation of Brenner energy and derivatives                   1.4175
--------------------------------------------------------------------------------
  Total CPU time                                                  1.4689
--------------------------------------------------------------------------------


  CIF file written as opti_1.0150.cif


  Job Finished at 14:17.09 31st July       2020                               

