********************************************************************************
*                       GENERAL UTILITY LATTICE PROGRAM                        *
*                                 Julian Gale                                  *
*                       Curtin Institute for Computation                       *
*                    School of Molecular and Life Sciences                     *
*                    Curtin University, Western Australia                      *
********************************************************************************
* Version = 5.2.0 * Last modified =  17th December 2019                        *
********************************************************************************
*  optimise     - perform optimisation run                                     *
*  conv         - constant volume calculation                                  *
*  isotropic    - only isotropic cell expansion to be allowed                  *
*  conjugate    - use conjugate gradients minimiser                            *
********************************************************************************
* ASE calculation                                                              *
********************************************************************************


  Job Started  at 23:37.52 10th August     2020                               

  Number of CPUs =     1


  Total number of configurations input =      1

********************************************************************************
*  Input for Configuration =   1                                               *
********************************************************************************

  Formula = C64                                                         

  Number of irreducible atoms/shells =      64


  Total number atoms/shells =      64

  Dimensionality = 3               :  Bulk   



  Cartesian lattice vectors (Angstroms) :

        7.646837    0.000000    0.000000
        0.000000    7.646837    0.000000
        0.000000    0.000000    7.646837

  Cell parameters (Angstroms/Degrees):

  a =       7.6468    alpha =  90.0000
  b =       7.6468    beta  =  90.0000
  c =       7.6468    gamma =  90.0000

  Initial cell volume =         447.142035 Angs**3

  Temperature of configuration =   0.00     K 

  Pressure of configuration =         0.000 GPa 

  Fractional coordinates of asymmetric unit :

--------------------------------------------------------------------------------
   No.  Atomic       x           y          z         Charge      Occupancy
        Label      (Frac)      (Frac)     (Frac)        (e)         (Frac)  
--------------------------------------------------------------------------------
      1 C     c    0.025100    0.587150    0.365320     0.00000    1.000000    
      2 C     c    0.261960 *  0.102350 *  0.107880 *   0.00000    1.000000    
      3 C     c    0.100080 *  0.438460 *  0.267700 *   0.00000    1.000000    
      4 C     c    0.878960 *  0.966820 *  0.452800 *   0.00000    1.000000    
      5 C     c    0.476970 *  0.917400 *  0.988740 *   0.00000    1.000000    
      6 C     c    0.786990 *  0.447150 *  0.220140 *   0.00000    1.000000    
      7 C     c    0.923040 *  0.637530 *  0.717050 *   0.00000    1.000000    
      8 C     c    0.810170 *  0.554570 *  0.590270 *   0.00000    1.000000    
      9 C     c    0.131790 *  0.380040 *  0.638710 *   0.00000    1.000000    
     10 C     c    0.404270 *  0.764550 *  0.117610 *   0.00000    1.000000    
     11 C     c    0.889700 *  0.256980 *  0.746610 *   0.00000    1.000000    
     12 C     c    0.569910 *  0.900620 *  0.557400 *   0.00000    1.000000    
     13 C     c    0.425650 *  0.240870 *  0.632440 *   0.00000    1.000000    
     14 C     c    0.200020 *  0.983730 *  0.798590 *   0.00000    1.000000    
     15 C     c    0.523060 *  0.608540 *  0.406760 *   0.00000    1.000000    
     16 C     c    0.987720 *  0.938200 *  0.121300 *   0.00000    1.000000    
     17 C     c    0.134680 *  0.821550 *  0.858210 *   0.00000    1.000000    
     18 C     c    0.347750 *  0.690110 *  0.662490 *   0.00000    1.000000    
     19 C     c    0.738190 *  0.384180 *  0.683430 *   0.00000    1.000000    
     20 C     c    0.046460 *  0.258110 *  0.266300 *   0.00000    1.000000    
     21 C     c    0.936080 *  0.173340 *  0.419850 *   0.00000    1.000000    
     22 C     c    0.843300 *  0.615880 *  0.414960 *   0.00000    1.000000    
     23 C     c    0.478470 *  0.818970 *  0.689890 *   0.00000    1.000000    
     24 C     c    0.794120 *  0.296780 *  0.327440 *   0.00000    1.000000    
     25 C     c    0.669440 *  0.161030 *  0.017330 *   0.00000    1.000000    
     26 C     c    0.520340 *  0.604650 *  0.088350 *   0.00000    1.000000    
     27 C     c    0.606080 *  0.280540 *  0.571440 *   0.00000    1.000000    
     28 C     c    0.633890 *  0.989520 *  0.119020 *   0.00000    1.000000    
     29 C     c    0.479160 *  0.916090 *  0.251290 *   0.00000    1.000000    
     30 C     c    0.339390 *  0.056680 *  0.923070 *   0.00000    1.000000    
     31 C     c    0.810280 *  0.113020 *  0.884120 *   0.00000    1.000000    
     32 C     c    0.867960 *  0.767490 *  0.838100 *   0.00000    1.000000    
     33 C     c    0.307470 *  0.395320 *  0.575810 *   0.00000    1.000000    
     34 C     c    0.226620 *  0.687030 *  0.123410 *   0.00000    1.000000    
     35 C     c    0.071610 *  0.510040 *  0.779400 *   0.00000    1.000000    
     36 C     c    0.326190 *  0.102150 *  0.509580 *   0.00000    1.000000    
     37 C     c    0.121970 *  0.741100 *  0.423810 *   0.00000    1.000000    
     38 C     c    0.542650 *  0.314790 *  0.957100 *   0.00000    1.000000    
     39 C     c    0.063420 *  0.131370 *  0.109250 *   0.00000    1.000000    
     40 C     c    0.769650 *  0.942180 *  0.796810 *   0.00000    1.000000    
     41 C     c    0.392750 *  0.558230 *  0.534200 *   0.00000    1.000000    
     42 C     c    0.068190 *  0.896530 *  0.498720 *   0.00000    1.000000    
     43 C     c    0.001700 *  0.428840 *  0.954850 *   0.00000    1.000000    
     44 C     c    0.238470 *  0.500650 *  0.156150 *   0.00000    1.000000    
     45 C     c    0.195640 *  0.672080 *  0.768160 *   0.00000    1.000000    
     46 C     c    0.892950 *  0.519810 *  0.081840 *   0.00000    1.000000    
     47 C     c    0.799970 *  0.863030 *  0.155410 *   0.00000    1.000000    
     48 C     c    0.985830 *  0.222020 *  0.949250 *   0.00000    1.000000    
     49 C     c    0.775600 *  0.805370 *  0.350130 *   0.00000    1.000000    
     50 C     c    0.821570 *  0.700470 *  0.025360 *   0.00000    1.000000    
     51 C     c    0.158980 *  0.041530 *  0.607950 *   0.00000    1.000000    
     52 C     c    0.476040 *  0.263670 *  0.276630 *   0.00000    1.000000    
     53 C     c    0.434680 *  0.399100 *  0.122780 *   0.00000    1.000000    
     54 C     c    0.365660 *  0.086630 *  0.294640 *   0.00000    1.000000    
     55 C     c    0.624160 *  0.266270 *  0.391700 *   0.00000    1.000000    
     56 C     c    0.422290 *  0.211340 *  0.832230 *   0.00000    1.000000    
     57 C     c    0.643820 *  0.455720 *  0.850330 *   0.00000    1.000000    
     58 C     c    0.737120 *  0.967710 *  0.602660 *   0.00000    1.000000    
     59 C     c    0.099210 *  0.802470 *  0.043610 *   0.00000    1.000000    
     60 C     c    0.617730 *  0.536110 *  0.254430 *   0.00000    1.000000    
     61 C     c    0.572990 *  0.809180 *  0.390000 *   0.00000    1.000000    
     62 C     c    0.027000 *  0.208410 *  0.602340 *   0.00000    1.000000    
     63 C     c    0.640770 *  0.641500 *  0.932270 *   0.00000    1.000000    
     64 C     c    0.588560 *  0.824650 *  0.852350 *   0.00000    1.000000    
--------------------------------------------------------------------------------


  Constraints : 

--------------------------------------------------------------------------------
  Constraint no.      Unconstrained     Constrained    Coefficient    Offset
                         Variable         Variable
--------------------------------------------------------------------------------
           1              Strain 1        Strain 2       1.00000      0.0000
           2              Strain 1        Strain 3       1.00000      0.0000
--------------------------------------------------------------------------------


********************************************************************************
*  General input information                                                   *
********************************************************************************

  Species output for all configurations : 

--------------------------------------------------------------------------------
  Species    Type    Atomic    Atomic    Charge       Radii (Angs)     Library
                     Number     Mass       (e)     Cova   Ionic  VDW   Symbol
--------------------------------------------------------------------------------
    C        Core        6      12.01   0.000000   0.770  0.000  1.530          
--------------------------------------------------------------------------------


  Lattice summation method               =    Ewald          (3-D)
                                         =    Parry          (2-D)
                                         =    Saunders et al (1-D)
  Accuracy factor for lattice sums       =   12.000


  Analytic derivatives to be used

  Time limit = Infinity

  Maximum range for interatomic potentials =    100000.000000 Angstroms

  Brenner et al 2002 potential to be used with explicit splines for P


********************************************************************************
*  Output for configuration   1                                                *
********************************************************************************


  Components of energy : 

--------------------------------------------------------------------------------
  Interatomic potentials     =           0.00000000 eV    
  Brenner potentials         =        -428.02752453 eV    
  Monopole - monopole (real) =           0.00000000 eV    
  Monopole - monopole (recip)=           0.00000000 eV    
  Monopole - monopole (total)=           0.00000000 eV    
--------------------------------------------------------------------------------
  Total lattice energy       =        -428.02752453 eV    
--------------------------------------------------------------------------------
  Total lattice energy       =          -41298.1131 kJ/(mole unit cells)
--------------------------------------------------------------------------------


  Number of variables =      189

  Maximum number of calculations  =          2000
  Maximum Hessian update interval =            10
  Maximum step size               =   1.000000000
  Maximum parameter tolerance     =   0.000010000
  Maximum function  tolerance     =   0.000010000
  Maximum gradient  tolerance     =   0.001000000
  Maximum gradient  component     =   0.010000000

  Symmetry not applied to optimisation

  Conjugate gradient optimiser to be used

  Lower half triangular hessian to be used

  Start of bulk optimisation :

  Cycle:      0 Energy:      -428.027525  Gnorm:      0.162717  CPU:    0.026
  Cycle:      1 Energy:      -428.084314  Gnorm:      0.076760  CPU:    0.065
  Cycle:      2 Energy:      -428.103413  Gnorm:      0.077448  CPU:    0.088
  Cycle:      3 Energy:      -428.122694  Gnorm:      0.067403  CPU:    0.097
  Cycle:      4 Energy:      -428.133551  Gnorm:      0.045225  CPU:    0.103
  Cycle:      5 Energy:      -428.142594  Gnorm:      0.050633  CPU:    0.129
  Cycle:      6 Energy:      -428.149277  Gnorm:      0.046634  CPU:    0.135
  Cycle:      7 Energy:      -428.153585  Gnorm:      0.034259  CPU:    0.141
  Cycle:      8 Energy:      -428.158286  Gnorm:      0.025195  CPU:    0.167
  Cycle:      9 Energy:      -428.160854  Gnorm:      0.028947  CPU:    0.176
  Cycle:     10 Energy:      -428.161903  Gnorm:      0.014299  CPU:    0.200
  Cycle:     11 Energy:      -428.162733  Gnorm:      0.013920  CPU:    0.209
  Cycle:     12 Energy:      -428.163268  Gnorm:      0.015311  CPU:    0.216
  Cycle:     13 Energy:      -428.164597  Gnorm:      0.017198  CPU:    0.242
  Cycle:     14 Energy:      -428.165636  Gnorm:      0.015398  CPU:    0.250
  Cycle:     15 Energy:      -428.166149  Gnorm:      0.013674  CPU:    0.257
  Cycle:     16 Energy:      -428.166574  Gnorm:      0.009369  CPU:    0.277
  Cycle:     17 Energy:      -428.166896  Gnorm:      0.008693  CPU:    0.288
  Cycle:     18 Energy:      -428.167107  Gnorm:      0.008284  CPU:    0.295
  Cycle:     19 Energy:      -428.167271  Gnorm:      0.006627  CPU:    0.308
  Cycle:     20 Energy:      -428.167350  Gnorm:      0.005363  CPU:    0.325
  Cycle:     21 Energy:      -428.167442  Gnorm:      0.004746  CPU:    0.333
  Cycle:     22 Energy:      -428.167507  Gnorm:      0.004158  CPU:    0.339
  Cycle:     23 Energy:      -428.167584  Gnorm:      0.004902  CPU:    0.363
  Cycle:     24 Energy:      -428.167657  Gnorm:      0.005080  CPU:    0.372
  Cycle:     25 Energy:      -428.167738  Gnorm:      0.004637  CPU:    0.378
  Cycle:     26 Energy:      -428.167813  Gnorm:      0.004649  CPU:    0.404
  Cycle:     27 Energy:      -428.167859  Gnorm:      0.003676  CPU:    0.411
  Cycle:     28 Energy:      -428.167923  Gnorm:      0.003917  CPU:    0.418
  Cycle:     29 Energy:      -428.167977  Gnorm:      0.005154  CPU:    0.443
  Cycle:     30 Energy:      -428.168006  Gnorm:      0.002508  CPU:    0.451
  Cycle:     31 Energy:      -428.168029  Gnorm:      0.002101  CPU:    0.458
  Cycle:     32 Energy:      -428.168055  Gnorm:      0.003262  CPU:    0.481
  Cycle:     33 Energy:      -428.168085  Gnorm:      0.002469  CPU:    0.490
  Cycle:     34 Energy:      -428.168104  Gnorm:      0.002449  CPU:    0.497
  Cycle:     35 Energy:      -428.168134  Gnorm:      0.003079  CPU:    0.503
  Cycle:     36 Energy:      -428.168156  Gnorm:      0.002480  CPU:    0.528
  Cycle:     37 Energy:      -428.168172  Gnorm:      0.002288  CPU:    0.536
  Cycle:     38 Energy:      -428.168208  Gnorm:      0.002971  CPU:    0.544
  Cycle:     39 Energy:      -428.168234  Gnorm:      0.003435  CPU:    0.552
  Cycle:     40 Energy:      -428.168254  Gnorm:      0.002348  CPU:    0.576
  Cycle:     41 Energy:      -428.168267  Gnorm:      0.001422  CPU:    0.585
  Cycle:     42 Energy:      -428.168273  Gnorm:      0.001401  CPU:    0.592
  Cycle:     43 Energy:      -428.168282  Gnorm:      0.002170  CPU:    0.619
  Cycle:     44 Energy:      -428.168305  Gnorm:      0.003209  CPU:    0.628
  Cycle:     45 Energy:      -428.168346  Gnorm:      0.003337  CPU:    0.634
  Cycle:     46 Energy:      -428.168382  Gnorm:      0.003149  CPU:    0.644
  Cycle:     47 Energy:      -428.168421  Gnorm:      0.003277  CPU:    0.667
  Cycle:     48 Energy:      -428.168468  Gnorm:      0.003760  CPU:    0.674
  Cycle:     49 Energy:      -428.168498  Gnorm:      0.003369  CPU:    0.680
  Cycle:     50 Energy:      -428.168518  Gnorm:      0.002438  CPU:    0.695
  Cycle:     51 Energy:      -428.168538  Gnorm:      0.002095  CPU:    0.713
  Cycle:     52 Energy:      -428.168549  Gnorm:      0.001496  CPU:    0.720
  Cycle:     53 Energy:      -428.168555  Gnorm:      0.001657  CPU:    0.727
  Cycle:     54 Energy:      -428.168565  Gnorm:      0.001858  CPU:    0.752
  Cycle:     55 Energy:      -428.168579  Gnorm:      0.001647  CPU:    0.762
  Cycle:     56 Energy:      -428.168591  Gnorm:      0.001249  CPU:    0.768
  Cycle:     57 Energy:      -428.168597  Gnorm:      0.001387  CPU:    0.774
  Cycle:     58 Energy:      -428.168602  Gnorm:      0.001187  CPU:    0.798
  Cycle:     59 Energy:      -428.168611  Gnorm:      0.001919  CPU:    0.808
  Cycle:     60 Energy:      -428.168617  Gnorm:      0.001048  CPU:    0.814
  Cycle:     61 Energy:      -428.168620  Gnorm:      0.001432  CPU:    0.832
  Cycle:     62 Energy:      -428.168624  Gnorm:      0.001314  CPU:    0.847
  Cycle:     63 Energy:      -428.168628  Gnorm:      0.001052  CPU:    0.854
  Cycle:     64 Energy:      -428.168631  Gnorm:      0.000748  CPU:    0.860
  Cycle:     65 Energy:      -428.168632  Gnorm:      0.000560  CPU:    0.874
  Cycle:     66 Energy:      -428.168632  Gnorm:      0.000528  CPU:    0.891
  Cycle:     67 Energy:      -428.168632  Gnorm:      0.000504  CPU:    0.899
  Cycle:     68 Energy:      -428.168632  Gnorm:      0.000500  CPU:    0.905
  Cycle:     69 Energy:      -428.168632  Gnorm:      0.000499  CPU:    0.919
  Cycle:     70 Energy:      -428.168639  Gnorm:      0.001380  CPU:    0.943
  Cycle:     71 Energy:      -428.168651  Gnorm:      0.001702  CPU:    0.950
  Cycle:     72 Energy:      -428.168663  Gnorm:      0.001553  CPU:    0.970
  Cycle:     73 Energy:      -428.168668  Gnorm:      0.000968  CPU:    0.982
  Cycle:     74 Energy:      -428.168670  Gnorm:      0.000611  CPU:    0.989
  Cycle:     75 Energy:      -428.168673  Gnorm:      0.001021  CPU:    0.996
  Cycle:     76 Energy:      -428.168678  Gnorm:      0.001558  CPU:    1.021
  Cycle:     77 Energy:      -428.168683  Gnorm:      0.001184  CPU:    1.031
  Cycle:     78 Energy:      -428.168688  Gnorm:      0.001180  CPU:    1.037
  Cycle:     79 Energy:      -428.168693  Gnorm:      0.001185  CPU:    1.043
  Cycle:     80 Energy:      -428.168695  Gnorm:      0.000863  CPU:    1.067
  Cycle:     81 Energy:      -428.168696  Gnorm:      0.000701  CPU:    1.075
  Cycle:     82 Energy:      -428.168697  Gnorm:      0.000391  CPU:    1.083
  Cycle:     83 Energy:      -428.168697  Gnorm:      0.000374  CPU:    1.088
  Cycle:     84 Energy:      -428.168698  Gnorm:      0.000372  CPU:    1.112
  Cycle:     85 Energy:      -428.168715  Gnorm:      0.001332  CPU:    1.129
  Cycle:     86 Energy:      -428.168723  Gnorm:      0.001789  CPU:    1.141
  Cycle:     87 Energy:      -428.168727  Gnorm:      0.000798  CPU:    1.160
  Cycle:     88 Energy:      -428.168729  Gnorm:      0.001042  CPU:    1.168
  Cycle:     89 Energy:      -428.168731  Gnorm:      0.001546  CPU:    1.174
  Cycle:     90 Energy:      -428.168734  Gnorm:      0.000830  CPU:    1.199
  Cycle:     91 Energy:      -428.168735  Gnorm:      0.000499  CPU:    1.207
  Cycle:     92 Energy:      -428.168737  Gnorm:      0.000843  CPU:    1.213
  Cycle:     93 Energy:      -428.168737  Gnorm:      0.000892  CPU:    1.218
  Cycle:     94 Energy:      -428.168739  Gnorm:      0.000506  CPU:    1.243
  Cycle:     95 Energy:      -428.168740  Gnorm:      0.000377  CPU:    1.251
  Cycle:     96 Energy:      -428.168740  Gnorm:      0.000335  CPU:    1.258


  **** Optimisation achieved ****


  Final energy =    -428.16874008 eV
  Final Gnorm  =       0.00032782

  Components of energy : 

--------------------------------------------------------------------------------
  Interatomic potentials     =           0.00000000 eV    
  Brenner potentials         =        -428.16874008 eV    
  Monopole - monopole (real) =           0.00000000 eV    
  Monopole - monopole (recip)=           0.00000000 eV    
  Monopole - monopole (total)=           0.00000000 eV    
--------------------------------------------------------------------------------
  Total lattice energy       =        -428.16874008 eV    
--------------------------------------------------------------------------------
  Total lattice energy       =          -41311.7383 kJ/(mole unit cells)
--------------------------------------------------------------------------------

  Final fractional coordinates of atoms :

--------------------------------------------------------------------------------
   No.  Atomic        x           y          z          Radius
        Label       (Frac)      (Frac)     (Frac)       (Angs) 
--------------------------------------------------------------------------------
     1  C     c     0.025100    0.587150    0.365320    0.000000
     2  C     c     0.260551    0.102015    0.106510    0.000000
     3  C     c     0.099966    0.439637    0.266992    0.000000
     4  C     c     0.879244    0.967312    0.452639    0.000000
     5  C     c     0.477978    0.915723    0.989059    0.000000
     6  C     c     0.785775    0.448438    0.221628    0.000000
     7  C     c     0.919252    0.633834    0.717765    0.000000
     8  C     c     0.810403    0.551028    0.589210    0.000000
     9  C     c     0.132716    0.380452    0.639875    0.000000
    10  C     c     0.405891    0.763399    0.117336    0.000000
    11  C     c     0.888225    0.254013    0.745830    0.000000
    12  C     c     0.572607    0.895352    0.556892    0.000000
    13  C     c     0.425313    0.240777    0.631910    0.000000
    14  C     c     0.202667    0.981895    0.797506    0.000000
    15  C     c     0.521568    0.607511    0.405915    0.000000
    16  C     c     0.989013    0.937153    0.119099    0.000000
    17  C     c     0.139130    0.820355    0.858280    0.000000
    18  C     c     0.350060    0.688043    0.663341    0.000000
    19  C     c     0.737264    0.382040    0.683053    0.000000
    20  C     c     0.043325    0.260336    0.264596    0.000000
    21  C     c     0.936076    0.174826    0.420054    0.000000
    22  C     c     0.843922    0.614264    0.415228    0.000000
    23  C     c     0.481211    0.815217    0.689025    0.000000
    24  C     c     0.794175    0.299062    0.328979    0.000000
    25  C     c     0.668197    0.157663    0.014477    0.000000
    26  C     c     0.520475    0.603706    0.088491    0.000000
    27  C     c     0.605039    0.280477    0.570804    0.000000
    28  C     c     0.635595    0.986969    0.117593    0.000000
    29  C     c     0.481341    0.915487    0.249352    0.000000
    30  C     c     0.340332    0.055411    0.923025    0.000000
    31  C     c     0.808979    0.110364    0.882006    0.000000
    32  C     c     0.862025    0.762781    0.837203    0.000000
    33  C     c     0.307765    0.395429    0.577666    0.000000
    34  C     c     0.228645    0.687080    0.123542    0.000000
    35  C     c     0.071242    0.511868    0.778857    0.000000
    36  C     c     0.325753    0.103319    0.508307    0.000000
    37  C     c     0.118598    0.742040    0.424053    0.000000
    38  C     c     0.542726    0.313512    0.956485    0.000000
    39  C     c     0.061942    0.132645    0.107877    0.000000
    40  C     c     0.768904    0.939520    0.795736    0.000000
    41  C     c     0.393016    0.557203    0.534711    0.000000
    42  C     c     0.067706    0.897612    0.497799    0.000000
    43  C     c     0.998030    0.429042    0.954125    0.000000
    44  C     c     0.240006    0.501414    0.158098    0.000000
    45  C     c     0.198839    0.670573    0.769327    0.000000
    46  C     c     0.889887    0.518681    0.081518    0.000000
    47  C     c     0.802115    0.860820    0.153671    0.000000
    48  C     c     0.982265    0.222649    0.947778    0.000000
    49  C     c     0.776385    0.804408    0.349069    0.000000
    50  C     c     0.819468    0.698538    0.025163    0.000000
    51  C     c     0.159324    0.041516    0.607179    0.000000
    52  C     c     0.478083    0.263336    0.276004    0.000000
    53  C     c     0.435161    0.400178    0.123174    0.000000
    54  C     c     0.367687    0.086389    0.290815    0.000000
    55  C     c     0.624421    0.267059    0.392049    0.000000
    56  C     c     0.423036    0.209472    0.831757    0.000000
    57  C     c     0.643747    0.453997    0.850003    0.000000
    58  C     c     0.738041    0.963245    0.602031    0.000000
    59  C     c     0.102731    0.802878    0.042982    0.000000
    60  C     c     0.616382    0.535637    0.254169    0.000000
    61  C     c     0.573942    0.807226    0.388406    0.000000
    62  C     c     0.027132    0.210020    0.603145    0.000000
    63  C     c     0.639621    0.639139    0.932435    0.000000
    64  C     c     0.588415    0.822445    0.852398    0.000000
--------------------------------------------------------------------------------

  Final internal derivatives :

--------------------------------------------------------------------------------
   No.  Atomic          a             b             c           Radius
        Label          (eV)          (eV)          (eV)        (eV/Angs)
--------------------------------------------------------------------------------
      1 C     c       0.000000      0.000000      0.000000      0.000000
      2 C     c       0.002023      0.004994      0.003817      0.000000
      3 C     c       0.002970      0.003196     -0.000386      0.000000
      4 C     c       0.002697      0.003835      0.005429      0.000000
      5 C     c       0.001615      0.007481      0.003559      0.000000
      6 C     c      -0.000341      0.005025      0.002325      0.000000
      7 C     c       0.002308      0.008641      0.004015      0.000000
      8 C     c       0.002745      0.006092      0.005168      0.000000
      9 C     c       0.000055      0.005778      0.004617      0.000000
     10 C     c      -0.000931      0.006946      0.003369      0.000000
     11 C     c      -0.000206      0.008236      0.003419      0.000000
     12 C     c       0.001495      0.007573      0.005784      0.000000
     13 C     c       0.001966      0.007523      0.003358      0.000000
     14 C     c       0.002153      0.009075      0.002882      0.000000
     15 C     c       0.002674      0.007248      0.000335      0.000000
     16 C     c       0.002130      0.008969      0.004045      0.000000
     17 C     c       0.002512      0.006868      0.001376      0.000000
     18 C     c      -0.001203      0.007685      0.005158      0.000000
     19 C     c       0.004731      0.006561      0.004253      0.000000
     20 C     c       0.000722      0.003830      0.004797      0.000000
     21 C     c       0.003276      0.004611      0.002058      0.000000
     22 C     c      -0.002379      0.004756      0.002948      0.000000
     23 C     c       0.001004      0.005283      0.003113      0.000000
     24 C     c       0.000292      0.005417      0.003659      0.000000
     25 C     c       0.000500      0.007582      0.002521      0.000000
     26 C     c       0.002034      0.007669      0.005680      0.000000
     27 C     c       0.002223      0.006941      0.003070      0.000000
     28 C     c       0.000944      0.006467      0.003782      0.000000
     29 C     c       0.003004      0.007094      0.003031      0.000000
     30 C     c       0.001378      0.006295      0.002383      0.000000
     31 C     c       0.001363      0.006658      0.002303      0.000000
     32 C     c       0.002394      0.007783      0.004912      0.000000
     33 C     c       0.000068      0.007374      0.004196      0.000000
     34 C     c       0.001458      0.003713      0.004183      0.000000
     35 C     c       0.003821      0.006739      0.001364      0.000000
     36 C     c       0.001842      0.005902      0.002565      0.000000
     37 C     c       0.000810      0.002533      0.000889      0.000000
     38 C     c      -0.000106      0.006550      0.006584      0.000000
     39 C     c       0.001629      0.005035      0.004531      0.000000
     40 C     c      -0.000201      0.004030      0.006239      0.000000
     41 C     c       0.001944      0.008384      0.005610      0.000000
     42 C     c       0.000598      0.002744      0.002457      0.000000
     43 C     c       0.000434      0.008454      0.003441      0.000000
     44 C     c       0.002354      0.005448      0.000894      0.000000
     45 C     c       0.001360      0.004859      0.004365      0.000000
     46 C     c      -0.000420      0.006625      0.002864      0.000000
     47 C     c      -0.001056      0.004522      0.001584      0.000000
     48 C     c       0.001815      0.005707      0.001923      0.000000
     49 C     c       0.001471      0.005154      0.004757      0.000000
     50 C     c       0.005093      0.009024      0.002781      0.000000
     51 C     c       0.002110      0.004075      0.003986      0.000000
     52 C     c       0.001909      0.008368      0.003318      0.000000
     53 C     c       0.002982      0.006144      0.003804      0.000000
     54 C     c      -0.000437      0.008118      0.002943      0.000000
     55 C     c       0.000196      0.008850      0.003358      0.000000
     56 C     c       0.000362      0.005987      0.002189      0.000000
     57 C     c       0.002587      0.009421      0.003026      0.000000
     58 C     c       0.004577      0.007686      0.004083      0.000000
     59 C     c       0.003376      0.006058      0.003118      0.000000
     60 C     c       0.002912      0.006133      0.003347      0.000000
     61 C     c       0.001802      0.003420      0.002584      0.000000
     62 C     c       0.002837      0.006743      0.001872      0.000000
     63 C     c      -0.000198      0.005131      0.001272      0.000000
     64 C     c       0.003216      0.008840      0.002936      0.000000
--------------------------------------------------------------------------------
  Maximum abs         0.005093      0.009421      0.006584      0.000000
--------------------------------------------------------------------------------


  Time to end of optimisation =       1.2632 seconds


  Peak dynamic memory used =       1.98 MB 


  Timing analysis for GULP :

--------------------------------------------------------------------------------
  Task / Subroutine                                          Time (Seconds)
--------------------------------------------------------------------------------
  Calculation of Brenner energy and derivatives                   1.2401
--------------------------------------------------------------------------------
  Total CPU time                                                  1.2633
--------------------------------------------------------------------------------


  CIF file written as opti_1.0150.cif


  Job Finished at 23:37.54 10th August     2020                               

