********************************************************************************
*                       GENERAL UTILITY LATTICE PROGRAM                        *
*                                 Julian Gale                                  *
*                       Curtin Institute for Computation                       *
*                           Department of Chemistry                            *
*                    Curtin University, Western Australia                      *
********************************************************************************
* Version = 5.1.0 * Last modified = 25th January 2020                          *
********************************************************************************
*  single       - perform a single point run                                   *
*  property     - calculate properties for final geometry                      *
*  phonon       - calculate phonons for final geometry                         *
********************************************************************************
* ASE calculation                                                              *
********************************************************************************


  Job Started  at 18:10.54 14th August     2020                               

  Number of CPUs =     1


  Total number of configurations input =      1

********************************************************************************
*  Input for Configuration =   1                                               *
********************************************************************************

  Formula = C8                                                          

  Number of irreducible atoms/shells =       8


  Total number atoms/shells =       8

  Dimensionality = 3               :  Bulk   



  Cartesian lattice vectors (Angstroms) :

        3.552060    0.000000    0.000000
        0.000000    3.552060    0.000000
        0.000000    0.000000    3.552060

  Cell parameters (Angstroms/Degrees):

  a =       3.5521    alpha =  90.0000
  b =       3.5521    beta  =  90.0000
  c =       3.5521    gamma =  90.0000

  Initial cell volume =          44.816804 Angs**3

  Shrinking factors =      8     8     8

  Temperature of configuration =  10.00     K 

  Pressure of configuration =         0.000 GPa 

  Fractional coordinates of asymmetric unit :

--------------------------------------------------------------------------------
   No.  Atomic       x           y          z         Charge      Occupancy
        Label      (Frac)      (Frac)     (Frac)        (e)         (Frac)  
--------------------------------------------------------------------------------
      1 C     c    0.000000    0.000000    0.000000     0.00000    1.000000    
      2 C     c    0.000000    0.500000    0.500000     0.00000    1.000000    
      3 C     c    0.500000    0.500000    0.000000     0.00000    1.000000    
      4 C     c    0.500000    0.000000    0.500000     0.00000    1.000000    
      5 C     c    0.750000    0.250000    0.750000     0.00000    1.000000    
      6 C     c    0.250000    0.250000    0.250000     0.00000    1.000000    
      7 C     c    0.250000    0.750000    0.750000     0.00000    1.000000    
      8 C     c    0.750000    0.750000    0.250000     0.00000    1.000000    
--------------------------------------------------------------------------------


  Brillouin zone sampling points :

--------------------------------------------------------------------------------
  Point number          x          y          z            Weight
--------------------------------------------------------------------------------
        1           0.062500   0.062500   0.062500     0.00390625
        2           0.062500   0.062500   0.187500     0.00390625
        3           0.062500   0.062500   0.312500     0.00390625
        4           0.062500   0.062500   0.437500     0.00390625
        5           0.062500   0.062500   0.562500     0.00390625
        6           0.062500   0.062500   0.687500     0.00390625
        7           0.062500   0.062500   0.812500     0.00390625
        8           0.062500   0.062500   0.937500     0.00390625
        9           0.062500   0.187500   0.062500     0.00390625
       10           0.062500   0.187500   0.187500     0.00390625
       11           0.062500   0.187500   0.312500     0.00390625
       12           0.062500   0.187500   0.437500     0.00390625
       13           0.062500   0.187500   0.562500     0.00390625
       14           0.062500   0.187500   0.687500     0.00390625
       15           0.062500   0.187500   0.812500     0.00390625
       16           0.062500   0.187500   0.937500     0.00390625
       17           0.062500   0.312500   0.062500     0.00390625
       18           0.062500   0.312500   0.187500     0.00390625
       19           0.062500   0.312500   0.312500     0.00390625
       20           0.062500   0.312500   0.437500     0.00390625
       21           0.062500   0.312500   0.562500     0.00390625
       22           0.062500   0.312500   0.687500     0.00390625
       23           0.062500   0.312500   0.812500     0.00390625
       24           0.062500   0.312500   0.937500     0.00390625
       25           0.062500   0.437500   0.062500     0.00390625
       26           0.062500   0.437500   0.187500     0.00390625
       27           0.062500   0.437500   0.312500     0.00390625
       28           0.062500   0.437500   0.437500     0.00390625
       29           0.062500   0.437500   0.562500     0.00390625
       30           0.062500   0.437500   0.687500     0.00390625
       31           0.062500   0.437500   0.812500     0.00390625
       32           0.062500   0.437500   0.937500     0.00390625
       33           0.062500   0.562500   0.062500     0.00390625
       34           0.062500   0.562500   0.187500     0.00390625
       35           0.062500   0.562500   0.312500     0.00390625
       36           0.062500   0.562500   0.437500     0.00390625
       37           0.062500   0.562500   0.562500     0.00390625
       38           0.062500   0.562500   0.687500     0.00390625
       39           0.062500   0.562500   0.812500     0.00390625
       40           0.062500   0.562500   0.937500     0.00390625
       41           0.062500   0.687500   0.062500     0.00390625
       42           0.062500   0.687500   0.187500     0.00390625
       43           0.062500   0.687500   0.312500     0.00390625
       44           0.062500   0.687500   0.437500     0.00390625
       45           0.062500   0.687500   0.562500     0.00390625
       46           0.062500   0.687500   0.687500     0.00390625
       47           0.062500   0.687500   0.812500     0.00390625
       48           0.062500   0.687500   0.937500     0.00390625
       49           0.062500   0.812500   0.062500     0.00390625
       50           0.062500   0.812500   0.187500     0.00390625
       51           0.062500   0.812500   0.312500     0.00390625
       52           0.062500   0.812500   0.437500     0.00390625
       53           0.062500   0.812500   0.562500     0.00390625
       54           0.062500   0.812500   0.687500     0.00390625
       55           0.062500   0.812500   0.812500     0.00390625
       56           0.062500   0.812500   0.937500     0.00390625
       57           0.062500   0.937500   0.062500     0.00390625
       58           0.062500   0.937500   0.187500     0.00390625
       59           0.062500   0.937500   0.312500     0.00390625
       60           0.062500   0.937500   0.437500     0.00390625
       61           0.062500   0.937500   0.562500     0.00390625
       62           0.062500   0.937500   0.687500     0.00390625
       63           0.062500   0.937500   0.812500     0.00390625
       64           0.062500   0.937500   0.937500     0.00390625
       65           0.187500   0.062500   0.062500     0.00390625
       66           0.187500   0.062500   0.187500     0.00390625
       67           0.187500   0.062500   0.312500     0.00390625
       68           0.187500   0.062500   0.437500     0.00390625
       69           0.187500   0.062500   0.562500     0.00390625
       70           0.187500   0.062500   0.687500     0.00390625
       71           0.187500   0.062500   0.812500     0.00390625
       72           0.187500   0.062500   0.937500     0.00390625
       73           0.187500   0.187500   0.062500     0.00390625
       74           0.187500   0.187500   0.187500     0.00390625
       75           0.187500   0.187500   0.312500     0.00390625
       76           0.187500   0.187500   0.437500     0.00390625
       77           0.187500   0.187500   0.562500     0.00390625
       78           0.187500   0.187500   0.687500     0.00390625
       79           0.187500   0.187500   0.812500     0.00390625
       80           0.187500   0.187500   0.937500     0.00390625
       81           0.187500   0.312500   0.062500     0.00390625
       82           0.187500   0.312500   0.187500     0.00390625
       83           0.187500   0.312500   0.312500     0.00390625
       84           0.187500   0.312500   0.437500     0.00390625
       85           0.187500   0.312500   0.562500     0.00390625
       86           0.187500   0.312500   0.687500     0.00390625
       87           0.187500   0.312500   0.812500     0.00390625
       88           0.187500   0.312500   0.937500     0.00390625
       89           0.187500   0.437500   0.062500     0.00390625
       90           0.187500   0.437500   0.187500     0.00390625
       91           0.187500   0.437500   0.312500     0.00390625
       92           0.187500   0.437500   0.437500     0.00390625
       93           0.187500   0.437500   0.562500     0.00390625
       94           0.187500   0.437500   0.687500     0.00390625
       95           0.187500   0.437500   0.812500     0.00390625
       96           0.187500   0.437500   0.937500     0.00390625
       97           0.187500   0.562500   0.062500     0.00390625
       98           0.187500   0.562500   0.187500     0.00390625
       99           0.187500   0.562500   0.312500     0.00390625
      100           0.187500   0.562500   0.437500     0.00390625
      101           0.187500   0.562500   0.562500     0.00390625
      102           0.187500   0.562500   0.687500     0.00390625
      103           0.187500   0.562500   0.812500     0.00390625
      104           0.187500   0.562500   0.937500     0.00390625
      105           0.187500   0.687500   0.062500     0.00390625
      106           0.187500   0.687500   0.187500     0.00390625
      107           0.187500   0.687500   0.312500     0.00390625
      108           0.187500   0.687500   0.437500     0.00390625
      109           0.187500   0.687500   0.562500     0.00390625
      110           0.187500   0.687500   0.687500     0.00390625
      111           0.187500   0.687500   0.812500     0.00390625
      112           0.187500   0.687500   0.937500     0.00390625
      113           0.187500   0.812500   0.062500     0.00390625
      114           0.187500   0.812500   0.187500     0.00390625
      115           0.187500   0.812500   0.312500     0.00390625
      116           0.187500   0.812500   0.437500     0.00390625
      117           0.187500   0.812500   0.562500     0.00390625
      118           0.187500   0.812500   0.687500     0.00390625
      119           0.187500   0.812500   0.812500     0.00390625
      120           0.187500   0.812500   0.937500     0.00390625
      121           0.187500   0.937500   0.062500     0.00390625
      122           0.187500   0.937500   0.187500     0.00390625
      123           0.187500   0.937500   0.312500     0.00390625
      124           0.187500   0.937500   0.437500     0.00390625
      125           0.187500   0.937500   0.562500     0.00390625
      126           0.187500   0.937500   0.687500     0.00390625
      127           0.187500   0.937500   0.812500     0.00390625
      128           0.187500   0.937500   0.937500     0.00390625
      129           0.312500   0.062500   0.062500     0.00390625
      130           0.312500   0.062500   0.187500     0.00390625
      131           0.312500   0.062500   0.312500     0.00390625
      132           0.312500   0.062500   0.437500     0.00390625
      133           0.312500   0.062500   0.562500     0.00390625
      134           0.312500   0.062500   0.687500     0.00390625
      135           0.312500   0.062500   0.812500     0.00390625
      136           0.312500   0.062500   0.937500     0.00390625
      137           0.312500   0.187500   0.062500     0.00390625
      138           0.312500   0.187500   0.187500     0.00390625
      139           0.312500   0.187500   0.312500     0.00390625
      140           0.312500   0.187500   0.437500     0.00390625
      141           0.312500   0.187500   0.562500     0.00390625
      142           0.312500   0.187500   0.687500     0.00390625
      143           0.312500   0.187500   0.812500     0.00390625
      144           0.312500   0.187500   0.937500     0.00390625
      145           0.312500   0.312500   0.062500     0.00390625
      146           0.312500   0.312500   0.187500     0.00390625
      147           0.312500   0.312500   0.312500     0.00390625
      148           0.312500   0.312500   0.437500     0.00390625
      149           0.312500   0.312500   0.562500     0.00390625
      150           0.312500   0.312500   0.687500     0.00390625
      151           0.312500   0.312500   0.812500     0.00390625
      152           0.312500   0.312500   0.937500     0.00390625
      153           0.312500   0.437500   0.062500     0.00390625
      154           0.312500   0.437500   0.187500     0.00390625
      155           0.312500   0.437500   0.312500     0.00390625
      156           0.312500   0.437500   0.437500     0.00390625
      157           0.312500   0.437500   0.562500     0.00390625
      158           0.312500   0.437500   0.687500     0.00390625
      159           0.312500   0.437500   0.812500     0.00390625
      160           0.312500   0.437500   0.937500     0.00390625
      161           0.312500   0.562500   0.062500     0.00390625
      162           0.312500   0.562500   0.187500     0.00390625
      163           0.312500   0.562500   0.312500     0.00390625
      164           0.312500   0.562500   0.437500     0.00390625
      165           0.312500   0.562500   0.562500     0.00390625
      166           0.312500   0.562500   0.687500     0.00390625
      167           0.312500   0.562500   0.812500     0.00390625
      168           0.312500   0.562500   0.937500     0.00390625
      169           0.312500   0.687500   0.062500     0.00390625
      170           0.312500   0.687500   0.187500     0.00390625
      171           0.312500   0.687500   0.312500     0.00390625
      172           0.312500   0.687500   0.437500     0.00390625
      173           0.312500   0.687500   0.562500     0.00390625
      174           0.312500   0.687500   0.687500     0.00390625
      175           0.312500   0.687500   0.812500     0.00390625
      176           0.312500   0.687500   0.937500     0.00390625
      177           0.312500   0.812500   0.062500     0.00390625
      178           0.312500   0.812500   0.187500     0.00390625
      179           0.312500   0.812500   0.312500     0.00390625
      180           0.312500   0.812500   0.437500     0.00390625
      181           0.312500   0.812500   0.562500     0.00390625
      182           0.312500   0.812500   0.687500     0.00390625
      183           0.312500   0.812500   0.812500     0.00390625
      184           0.312500   0.812500   0.937500     0.00390625
      185           0.312500   0.937500   0.062500     0.00390625
      186           0.312500   0.937500   0.187500     0.00390625
      187           0.312500   0.937500   0.312500     0.00390625
      188           0.312500   0.937500   0.437500     0.00390625
      189           0.312500   0.937500   0.562500     0.00390625
      190           0.312500   0.937500   0.687500     0.00390625
      191           0.312500   0.937500   0.812500     0.00390625
      192           0.312500   0.937500   0.937500     0.00390625
      193           0.437500   0.062500   0.062500     0.00390625
      194           0.437500   0.062500   0.187500     0.00390625
      195           0.437500   0.062500   0.312500     0.00390625
      196           0.437500   0.062500   0.437500     0.00390625
      197           0.437500   0.062500   0.562500     0.00390625
      198           0.437500   0.062500   0.687500     0.00390625
      199           0.437500   0.062500   0.812500     0.00390625
      200           0.437500   0.062500   0.937500     0.00390625
      201           0.437500   0.187500   0.062500     0.00390625
      202           0.437500   0.187500   0.187500     0.00390625
      203           0.437500   0.187500   0.312500     0.00390625
      204           0.437500   0.187500   0.437500     0.00390625
      205           0.437500   0.187500   0.562500     0.00390625
      206           0.437500   0.187500   0.687500     0.00390625
      207           0.437500   0.187500   0.812500     0.00390625
      208           0.437500   0.187500   0.937500     0.00390625
      209           0.437500   0.312500   0.062500     0.00390625
      210           0.437500   0.312500   0.187500     0.00390625
      211           0.437500   0.312500   0.312500     0.00390625
      212           0.437500   0.312500   0.437500     0.00390625
      213           0.437500   0.312500   0.562500     0.00390625
      214           0.437500   0.312500   0.687500     0.00390625
      215           0.437500   0.312500   0.812500     0.00390625
      216           0.437500   0.312500   0.937500     0.00390625
      217           0.437500   0.437500   0.062500     0.00390625
      218           0.437500   0.437500   0.187500     0.00390625
      219           0.437500   0.437500   0.312500     0.00390625
      220           0.437500   0.437500   0.437500     0.00390625
      221           0.437500   0.437500   0.562500     0.00390625
      222           0.437500   0.437500   0.687500     0.00390625
      223           0.437500   0.437500   0.812500     0.00390625
      224           0.437500   0.437500   0.937500     0.00390625
      225           0.437500   0.562500   0.062500     0.00390625
      226           0.437500   0.562500   0.187500     0.00390625
      227           0.437500   0.562500   0.312500     0.00390625
      228           0.437500   0.562500   0.437500     0.00390625
      229           0.437500   0.562500   0.562500     0.00390625
      230           0.437500   0.562500   0.687500     0.00390625
      231           0.437500   0.562500   0.812500     0.00390625
      232           0.437500   0.562500   0.937500     0.00390625
      233           0.437500   0.687500   0.062500     0.00390625
      234           0.437500   0.687500   0.187500     0.00390625
      235           0.437500   0.687500   0.312500     0.00390625
      236           0.437500   0.687500   0.437500     0.00390625
      237           0.437500   0.687500   0.562500     0.00390625
      238           0.437500   0.687500   0.687500     0.00390625
      239           0.437500   0.687500   0.812500     0.00390625
      240           0.437500   0.687500   0.937500     0.00390625
      241           0.437500   0.812500   0.062500     0.00390625
      242           0.437500   0.812500   0.187500     0.00390625
      243           0.437500   0.812500   0.312500     0.00390625
      244           0.437500   0.812500   0.437500     0.00390625
      245           0.437500   0.812500   0.562500     0.00390625
      246           0.437500   0.812500   0.687500     0.00390625
      247           0.437500   0.812500   0.812500     0.00390625
      248           0.437500   0.812500   0.937500     0.00390625
      249           0.437500   0.937500   0.062500     0.00390625
      250           0.437500   0.937500   0.187500     0.00390625
      251           0.437500   0.937500   0.312500     0.00390625
      252           0.437500   0.937500   0.437500     0.00390625
      253           0.437500   0.937500   0.562500     0.00390625
      254           0.437500   0.937500   0.687500     0.00390625
      255           0.437500   0.937500   0.812500     0.00390625
      256           0.437500   0.937500   0.937500     0.00390625
--------------------------------------------------------------------------------


********************************************************************************
*  General input information                                                   *
********************************************************************************

  Species output for all configurations : 

--------------------------------------------------------------------------------
  Species    Type    Atomic    Atomic    Charge       Radii (Angs)     Library
                     Number     Mass       (e)     Cova   Ionic  VDW   Symbol
--------------------------------------------------------------------------------
    C        Core        6      12.01   0.000000   0.770  0.000  1.530          
--------------------------------------------------------------------------------


  Lattice summation method               =    Ewald          (3-D)
                                         =    Parry          (2-D)
                                         =    Saunders et al (1-D)
  Accuracy factor for lattice sums       =   12.000


  Time limit = Infinity

  Maximum range for interatomic potentials =    100000.000000 Angstroms

  Brenner et al 2002 potential to be used with explicit splines for P


********************************************************************************
*  Output for configuration   1                                                *
********************************************************************************


  Components of energy : 

--------------------------------------------------------------------------------
  Interatomic potentials     =           0.00000000 eV    
  Brenner potentials         =         -58.94949336 eV    
  Monopole - monopole (real) =           0.00000000 eV    
  Monopole - monopole (recip)=           0.00000000 eV    
  Monopole - monopole (total)=           0.00000000 eV    
--------------------------------------------------------------------------------
  Total lattice energy       =         -58.94949336 eV    
--------------------------------------------------------------------------------
  Total lattice energy       =           -5687.7250 kJ/(mole unit cells)
--------------------------------------------------------------------------------


  Elastic Constant Matrix: (Units=GPa)

-------------------------------------------------------------------------------
  Indices      1         2         3         4         5         6    
-------------------------------------------------------------------------------
       1   1108.1620  137.8993  137.8993    0.0000    0.0000    0.0000
       2    137.8993 1108.1620  137.8993    0.0000    0.0000    0.0000
       3    137.8993  137.8993 1108.1620    0.0000    0.0000    0.0000
       4      0.0000    0.0000    0.0000  744.6093   -0.0000   -0.0000
       5      0.0000    0.0000    0.0000   -0.0000  744.6093   -0.0000
       6      0.0000    0.0000    0.0000   -0.0000   -0.0000  744.6093
-------------------------------------------------------------------------------

  Elastic Constant Tensor Eigenvalues: (Units=GPa)

-------------------------------------------------------------------------------
     1 =   744.6093     2 =   744.6093     3 =   744.6093
     4 =   970.2627     5 =   970.2627     6 =  1383.9607
-------------------------------------------------------------------------------


  Elastic Compliance Matrix: (Units=1/GPa)

-------------------------------------------------------------------------------
  Indices      1         2         3         4         5         6    
-------------------------------------------------------------------------------
       1    0.000928 -0.000103 -0.000103 -0.000000 -0.000000 -0.000000
       2   -0.000103  0.000928 -0.000103 -0.000000 -0.000000 -0.000000
       3   -0.000103 -0.000103  0.000928 -0.000000 -0.000000 -0.000000
       4   -0.000000 -0.000000 -0.000000  0.001343  0.000000  0.000000
       5   -0.000000 -0.000000 -0.000000  0.000000  0.001343  0.000000
       6   -0.000000 -0.000000 -0.000000  0.000000  0.000000  0.001343
-------------------------------------------------------------------------------

  Mechanical properties :

-------------------------------------------------------------------------------
  Convention :                    Reuss         Voigt         Hill
-------------------------------------------------------------------------------
  Bulk  Modulus (GPa)     =     461.32024     461.32024     461.32024
  Shear Modulus (GPa)     =     613.38004     640.81814     627.09909
-------------------------------------------------------------------------------
  Velocity S-wave (km/s)  =      13.12625      13.41663      13.27223
  Velocity P-wave (km/s)  =      18.95564      19.22479      19.09069
-------------------------------------------------------------------------------
  Compressibility (1/GPa) =    0.00216769
-------------------------------------------------------------------------------
  Stress axis :                     x             y             z
-------------------------------------------------------------------------------
  Youngs Moduli (GPa)     =    1077.63989    1077.63989    1077.63989
-------------------------------------------------------------------------------
  Poissons Ratio (x)      =                     0.11067       0.11067
  Poissons Ratio (y)      =       0.11067                     0.11067
  Poissons Ratio (z)      =       0.11067       0.11067
-------------------------------------------------------------------------------


  Piezoelectric Strain Matrix: (Units=C/m**2)

-------------------------------------------------------------------------------
  Indices      1         2         3         4         5         6    
-------------------------------------------------------------------------------
       x    -0.00000  -0.00000  -0.00000  -0.00000  -0.00000  -0.00000
       y    -0.00000  -0.00000  -0.00000  -0.00000  -0.00000  -0.00000
       z    -0.00000  -0.00000  -0.00000  -0.00000  -0.00000  -0.00000
-------------------------------------------------------------------------------


  Piezoelectric Stress Matrix: (Units=10**-11 C/N)

-------------------------------------------------------------------------------
  Indices      1         2         3         4         5         6    
-------------------------------------------------------------------------------
       x     0.00000   0.00000   0.00000   0.00000   0.00000   0.00000
       y     0.00000   0.00000   0.00000   0.00000   0.00000   0.00000
       z     0.00000   0.00000   0.00000   0.00000   0.00000   0.00000
-------------------------------------------------------------------------------


  Static dielectric constant tensor : 

-------------------------------------------------------------------------------
              x         y         z
-------------------------------------------------------------------------------
       x     1.00000   0.00000   0.00000
       y     0.00000   1.00000   0.00000
       z     0.00000   0.00000   1.00000
--------------------------------------------------------------------------------

  Static refractive indices : 

-------------------------------------------------------------------------------
    1 =    1.00000      2 =    1.00000      3 =    1.00000
-------------------------------------------------------------------------------


  Phonon Calculation : 

  Number of k points for this configuration =      256

--------------------------------------------------------------------------------
  K point      1 =   0.062500  0.062500  0.062500  Weight =    0.004
--------------------------------------------------------------------------------

  Frequencies (cm-1) [NB: Negative implies an imaginary mode]:

  128.38  128.38  204.97 1065.88 1065.88 1065.88 1079.51 1079.51 1079.51
 1242.01 1242.01 1242.01 1294.13 1294.13 1294.13 1313.78 1313.78 1313.78
 1378.22 1378.22 1378.22 1597.24 1597.24 1601.43


--------------------------------------------------------------------------------
  K point      2 =   0.062500  0.062500  0.187500  Weight =    0.004
--------------------------------------------------------------------------------

  Frequencies (cm-1) [NB: Negative implies an imaginary mode]:

  252.09  269.56  367.07  980.36  990.08 1058.62 1058.62 1097.19 1097.19
 1152.16 1193.93 1193.93 1273.05 1273.05 1347.81 1347.81 1353.23 1359.58
 1398.95 1398.95 1445.33 1584.97 1585.40 1597.52


--------------------------------------------------------------------------------
  K point      3 =   0.062500  0.062500  0.312500  Weight =    0.004
--------------------------------------------------------------------------------

  Frequencies (cm-1) [NB: Negative implies an imaginary mode]:

  414.10  426.14  543.66  861.79  867.67 1025.14 1060.08 1060.08 1115.67
 1115.67 1148.33 1148.33 1242.37 1242.37 1379.40 1379.40 1418.06 1418.06
 1419.67 1424.12 1500.09 1561.66 1561.88 1587.14


--------------------------------------------------------------------------------
  K point      4 =   0.062500  0.062500  0.437500  Weight =    0.004
--------------------------------------------------------------------------------

  Frequencies (cm-1) [NB: Negative implies an imaginary mode]:

  575.24  580.17  716.43  726.62  727.75  878.44 1070.42 1070.42 1109.00
 1109.00 1135.49 1135.49 1219.87 1219.87 1396.77 1396.77 1428.36 1428.36
 1478.33 1481.27 1525.93 1527.39 1540.67 1568.90


--------------------------------------------------------------------------------
  K point      5 =   0.062500  0.062500  0.562500  Weight =    0.004
--------------------------------------------------------------------------------

  Frequencies (cm-1) [NB: Negative implies an imaginary mode]:

  575.24  580.17  716.43  726.62  727.75  878.44 1070.42 1070.42 1109.00
 1109.00 1135.49 1135.49 1219.87 1219.87 1396.77 1396.77 1428.36 1428.36
 1478.33 1481.27 1525.93 1527.39 1540.67 1568.90


--------------------------------------------------------------------------------
  K point      6 =   0.062500  0.062500  0.687500  Weight =    0.004
--------------------------------------------------------------------------------

  Frequencies (cm-1) [NB: Negative implies an imaginary mode]:

  414.10  426.14  543.66  861.79  867.67 1025.14 1060.08 1060.08 1115.67
 1115.67 1148.33 1148.33 1242.37 1242.37 1379.40 1379.40 1418.06 1418.06
 1419.67 1424.12 1500.09 1561.66 1561.88 1587.14


--------------------------------------------------------------------------------
  K point      7 =   0.062500  0.062500  0.812500  Weight =    0.004
--------------------------------------------------------------------------------

  Frequencies (cm-1) [NB: Negative implies an imaginary mode]:

  252.09  269.56  367.07  980.36  990.08 1058.62 1058.62 1097.19 1097.19
 1152.16 1193.93 1193.93 1273.05 1273.05 1347.81 1347.81 1353.23 1359.58
 1398.95 1398.95 1445.33 1584.97 1585.40 1597.52


--------------------------------------------------------------------------------
  K point      8 =   0.062500  0.062500  0.937500  Weight =    0.004
--------------------------------------------------------------------------------

  Frequencies (cm-1) [NB: Negative implies an imaginary mode]:

  128.38  128.38  204.97 1065.88 1065.88 1065.88 1079.51 1079.51 1079.51
 1242.01 1242.01 1242.01 1294.13 1294.13 1294.13 1313.78 1313.78 1313.78
 1378.22 1378.22 1378.22 1597.24 1597.24 1601.43


--------------------------------------------------------------------------------
  K point      9 =   0.062500  0.187500  0.062500  Weight =    0.004
--------------------------------------------------------------------------------

  Frequencies (cm-1) [NB: Negative implies an imaginary mode]:

  252.09  269.56  367.07  980.36  990.08 1058.62 1058.62 1097.19 1097.19
 1152.16 1193.93 1193.93 1273.05 1273.05 1347.81 1347.81 1353.23 1359.58
 1398.95 1398.95 1445.33 1584.97 1585.40 1597.52


--------------------------------------------------------------------------------
  K point     10 =   0.062500  0.187500  0.187500  Weight =    0.004
--------------------------------------------------------------------------------

  Frequencies (cm-1) [NB: Negative implies an imaginary mode]:

  299.83  355.37  490.81  977.76  977.76 1006.94 1006.94 1021.93 1125.58
 1128.54 1128.54 1163.77 1305.94 1311.54 1344.78 1344.78 1383.74 1383.74
 1430.00 1441.86 1441.86 1571.11 1574.67 1594.43


--------------------------------------------------------------------------------
  K point     11 =   0.062500  0.187500  0.312500  Weight =    0.004
--------------------------------------------------------------------------------

  Frequencies (cm-1) [NB: Negative implies an imaginary mode]:

  419.35  484.76  635.69  857.23  889.79  978.36  994.34 1029.19 1031.24
 1107.99 1112.24 1152.91 1281.75 1327.42 1349.19 1411.25 1412.39 1435.71
 1436.30 1450.14 1489.06 1547.49 1553.81 1582.87


--------------------------------------------------------------------------------
  K point     12 =   0.062500  0.187500  0.437500  Weight =    0.004
--------------------------------------------------------------------------------

  Frequencies (cm-1) [NB: Negative implies an imaginary mode]:

  566.37  623.85  716.36  760.77  779.23  912.83  977.68  980.16 1053.67
 1081.16 1111.62 1134.90 1285.48 1305.59 1383.20 1407.97 1446.23 1455.40
 1469.00 1483.83 1513.87 1523.36 1529.85 1561.41


--------------------------------------------------------------------------------
  K point     13 =   0.062500  0.187500  0.562500  Weight =    0.004
--------------------------------------------------------------------------------

  Frequencies (cm-1) [NB: Negative implies an imaginary mode]:

  566.37  623.85  716.36  760.77  779.23  912.83  977.68  980.16 1053.67
 1081.16 1111.62 1134.90 1285.48 1305.59 1383.20 1407.97 1446.23 1455.40
 1469.00 1483.83 1513.87 1523.36 1529.85 1561.41


--------------------------------------------------------------------------------
  K point     14 =   0.062500  0.187500  0.687500  Weight =    0.004
--------------------------------------------------------------------------------

  Frequencies (cm-1) [NB: Negative implies an imaginary mode]:

  419.35  484.76  635.69  857.23  889.79  978.36  994.34 1029.19 1031.24
 1107.99 1112.24 1152.91 1281.75 1327.42 1349.19 1411.25 1412.39 1435.71
 1436.30 1450.14 1489.06 1547.49 1553.81 1582.87


--------------------------------------------------------------------------------
  K point     15 =   0.062500  0.187500  0.812500  Weight =    0.004
--------------------------------------------------------------------------------

  Frequencies (cm-1) [NB: Negative implies an imaginary mode]:

  299.83  355.37  490.81  977.76  977.76 1006.94 1006.94 1021.93 1125.58
 1128.54 1128.54 1163.77 1305.94 1311.54 1344.78 1344.78 1383.74 1383.74
 1430.00 1441.86 1441.86 1571.11 1574.67 1594.43


--------------------------------------------------------------------------------
  K point     16 =   0.062500  0.187500  0.937500  Weight =    0.004
--------------------------------------------------------------------------------

  Frequencies (cm-1) [NB: Negative implies an imaginary mode]:

  252.09  269.56  367.07  980.36  990.08 1058.62 1058.62 1097.19 1097.19
 1152.16 1193.93 1193.93 1273.05 1273.05 1347.81 1347.81 1353.23 1359.58
 1398.95 1398.95 1445.33 1584.97 1585.40 1597.52


--------------------------------------------------------------------------------
  K point     17 =   0.062500  0.312500  0.062500  Weight =    0.004
--------------------------------------------------------------------------------

  Frequencies (cm-1) [NB: Negative implies an imaginary mode]:

  414.10  426.14  543.66  861.79  867.67 1025.14 1060.08 1060.08 1115.67
 1115.67 1148.33 1148.33 1242.37 1242.37 1379.40 1379.40 1418.06 1418.06
 1419.67 1424.12 1500.09 1561.66 1561.88 1587.14


--------------------------------------------------------------------------------
  K point     18 =   0.062500  0.312500  0.187500  Weight =    0.004
--------------------------------------------------------------------------------

  Frequencies (cm-1) [NB: Negative implies an imaginary mode]:

  419.35  484.76  635.69  857.23  889.79  978.36  994.34 1029.19 1031.24
 1107.99 1112.24 1152.91 1281.75 1327.42 1349.19 1411.25 1412.39 1435.71
 1436.30 1450.14 1489.06 1547.49 1553.81 1582.87


--------------------------------------------------------------------------------
  K point     19 =   0.062500  0.312500  0.312500  Weight =    0.004
--------------------------------------------------------------------------------

  Frequencies (cm-1) [NB: Negative implies an imaginary mode]:

  481.01  585.41  748.10  853.88  853.88  931.11  931.11  934.07 1044.90
 1044.90 1076.78 1139.13 1330.21 1348.47 1397.88 1397.88 1453.15 1453.15
 1467.17 1467.17 1470.04 1523.72 1538.12 1569.31


--------------------------------------------------------------------------------
  K point     20 =   0.062500  0.312500  0.437500  Weight =    0.004
--------------------------------------------------------------------------------

  Frequencies (cm-1) [NB: Negative implies an imaginary mode]:

  589.18  702.11  719.29  820.32  859.33  861.97  888.38  960.19  982.93
 1033.97 1068.06 1102.17 1355.57 1377.96 1390.43 1433.37 1451.50 1469.29
 1475.99 1487.19 1492.16 1507.80 1515.44 1544.09


--------------------------------------------------------------------------------
  K point     21 =   0.062500  0.312500  0.562500  Weight =    0.004
--------------------------------------------------------------------------------

  Frequencies (cm-1) [NB: Negative implies an imaginary mode]:

  589.18  702.11  719.29  820.32  859.33  861.97  888.38  960.19  982.93
 1033.97 1068.06 1102.17 1355.57 1377.96 1390.43 1433.37 1451.50 1469.29
 1475.99 1487.19 1492.16 1507.80 1515.44 1544.09


--------------------------------------------------------------------------------
  K point     22 =   0.062500  0.312500  0.687500  Weight =    0.004
--------------------------------------------------------------------------------

  Frequencies (cm-1) [NB: Negative implies an imaginary mode]:

  481.01  585.41  748.10  853.88  853.88  931.11  931.11  934.07 1044.90
 1044.90 1076.78 1139.13 1330.21 1348.47 1397.88 1397.88 1453.15 1453.15
 1467.17 1467.17 1470.04 1523.72 1538.12 1569.31


--------------------------------------------------------------------------------
  K point     23 =   0.062500  0.312500  0.812500  Weight =    0.004
--------------------------------------------------------------------------------

  Frequencies (cm-1) [NB: Negative implies an imaginary mode]:

  419.35  484.76  635.69  857.23  889.79  978.36  994.34 1029.19 1031.24
 1107.99 1112.24 1152.91 1281.75 1327.42 1349.19 1411.25 1412.39 1435.71
 1436.30 1450.14 1489.06 1547.49 1553.81 1582.87


--------------------------------------------------------------------------------
  K point     24 =   0.062500  0.312500  0.937500  Weight =    0.004
--------------------------------------------------------------------------------

  Frequencies (cm-1) [NB: Negative implies an imaginary mode]:

  414.10  426.14  543.66  861.79  867.67 1025.14 1060.08 1060.08 1115.67
 1115.67 1148.33 1148.33 1242.37 1242.37 1379.40 1379.40 1418.06 1418.06
 1419.67 1424.12 1500.09 1561.66 1561.88 1587.14


--------------------------------------------------------------------------------
  K point     25 =   0.062500  0.437500  0.062500  Weight =    0.004
--------------------------------------------------------------------------------

  Frequencies (cm-1) [NB: Negative implies an imaginary mode]:

  575.24  580.17  716.43  726.62  727.75  878.44 1070.42 1070.42 1109.00
 1109.00 1135.49 1135.49 1219.87 1219.87 1396.77 1396.77 1428.36 1428.36
 1478.33 1481.27 1525.93 1527.39 1540.67 1568.90


--------------------------------------------------------------------------------
  K point     26 =   0.062500  0.437500  0.187500  Weight =    0.004
--------------------------------------------------------------------------------

  Frequencies (cm-1) [NB: Negative implies an imaginary mode]:

  566.37  623.85  716.36  760.77  779.23  912.83  977.68  980.16 1053.67
 1081.16 1111.62 1134.90 1285.48 1305.59 1383.20 1407.97 1446.23 1455.40
 1469.00 1483.83 1513.87 1523.36 1529.85 1561.41


--------------------------------------------------------------------------------
  K point     27 =   0.062500  0.437500  0.312500  Weight =    0.004
--------------------------------------------------------------------------------

  Frequencies (cm-1) [NB: Negative implies an imaginary mode]:

  589.18  702.11  719.29  820.32  859.33  861.97  888.38  960.19  982.93
 1033.97 1068.06 1102.17 1355.57 1377.96 1390.43 1433.37 1451.50 1469.29
 1475.99 1487.19 1492.16 1507.80 1515.44 1544.09


--------------------------------------------------------------------------------
  K point     28 =   0.062500  0.437500  0.437500  Weight =    0.004
--------------------------------------------------------------------------------

  Frequencies (cm-1) [NB: Negative implies an imaginary mode]:

  653.74  749.54  749.54  796.88  808.14  894.19  894.19  938.48  969.46
 1009.32 1009.32 1057.20 1401.85 1425.19 1428.40 1428.40 1463.74 1470.89
 1470.89 1487.39 1491.17 1491.17 1501.59 1516.53


--------------------------------------------------------------------------------
  K point     29 =   0.062500  0.437500  0.562500  Weight =    0.004
--------------------------------------------------------------------------------

  Frequencies (cm-1) [NB: Negative implies an imaginary mode]:

  653.74  749.54  749.54  796.88  808.14  894.19  894.19  938.48  969.46
 1009.32 1009.32 1057.20 1401.85 1425.19 1428.40 1428.40 1463.74 1470.89
 1470.89 1487.39 1491.17 1491.17 1501.59 1516.53


--------------------------------------------------------------------------------
  K point     30 =   0.062500  0.437500  0.687500  Weight =    0.004
--------------------------------------------------------------------------------

  Frequencies (cm-1) [NB: Negative implies an imaginary mode]:

  589.18  702.11  719.29  820.32  859.33  861.97  888.38  960.19  982.93
 1033.97 1068.06 1102.17 1355.57 1377.96 1390.43 1433.37 1451.50 1469.29
 1475.99 1487.19 1492.16 1507.80 1515.44 1544.09


--------------------------------------------------------------------------------
  K point     31 =   0.062500  0.437500  0.812500  Weight =    0.004
--------------------------------------------------------------------------------

  Frequencies (cm-1) [NB: Negative implies an imaginary mode]:

  566.37  623.85  716.36  760.77  779.23  912.83  977.68  980.16 1053.67
 1081.16 1111.62 1134.90 1285.48 1305.59 1383.20 1407.97 1446.23 1455.40
 1469.00 1483.83 1513.87 1523.36 1529.85 1561.41


--------------------------------------------------------------------------------
  K point     32 =   0.062500  0.437500  0.937500  Weight =    0.004
--------------------------------------------------------------------------------

  Frequencies (cm-1) [NB: Negative implies an imaginary mode]:

  575.24  580.17  716.43  726.62  727.75  878.44 1070.42 1070.42 1109.00
 1109.00 1135.49 1135.49 1219.87 1219.87 1396.77 1396.77 1428.36 1428.36
 1478.33 1481.27 1525.93 1527.39 1540.67 1568.90


--------------------------------------------------------------------------------
  K point     33 =   0.062500  0.562500  0.062500  Weight =    0.004
--------------------------------------------------------------------------------

  Frequencies (cm-1) [NB: Negative implies an imaginary mode]:

  575.24  580.17  716.43  726.62  727.75  878.44 1070.42 1070.42 1109.00
 1109.00 1135.49 1135.49 1219.87 1219.87 1396.77 1396.77 1428.36 1428.36
 1478.33 1481.27 1525.93 1527.39 1540.67 1568.90


--------------------------------------------------------------------------------
  K point     34 =   0.062500  0.562500  0.187500  Weight =    0.004
--------------------------------------------------------------------------------

  Frequencies (cm-1) [NB: Negative implies an imaginary mode]:

  566.37  623.85  716.36  760.77  779.23  912.83  977.68  980.16 1053.67
 1081.16 1111.62 1134.90 1285.48 1305.59 1383.20 1407.97 1446.23 1455.40
 1469.00 1483.83 1513.87 1523.36 1529.85 1561.41


--------------------------------------------------------------------------------
  K point     35 =   0.062500  0.562500  0.312500  Weight =    0.004
--------------------------------------------------------------------------------

  Frequencies (cm-1) [NB: Negative implies an imaginary mode]:

  589.18  702.11  719.29  820.32  859.33  861.97  888.38  960.19  982.93
 1033.97 1068.06 1102.17 1355.57 1377.96 1390.43 1433.37 1451.50 1469.29
 1475.99 1487.19 1492.16 1507.80 1515.44 1544.09


--------------------------------------------------------------------------------
  K point     36 =   0.062500  0.562500  0.437500  Weight =    0.004
--------------------------------------------------------------------------------

  Frequencies (cm-1) [NB: Negative implies an imaginary mode]:

  653.74  749.54  749.54  796.88  808.14  894.19  894.19  938.48  969.46
 1009.32 1009.32 1057.20 1401.85 1425.19 1428.40 1428.40 1463.74 1470.89
 1470.89 1487.39 1491.17 1491.17 1501.59 1516.53


--------------------------------------------------------------------------------
  K point     37 =   0.062500  0.562500  0.562500  Weight =    0.004
--------------------------------------------------------------------------------

  Frequencies (cm-1) [NB: Negative implies an imaginary mode]:

  653.74  749.54  749.54  796.88  808.14  894.19  894.19  938.48  969.46
 1009.32 1009.32 1057.20 1401.85 1425.19 1428.40 1428.40 1463.74 1470.89
 1470.89 1487.39 1491.17 1491.17 1501.59 1516.53


--------------------------------------------------------------------------------
  K point     38 =   0.062500  0.562500  0.687500  Weight =    0.004
--------------------------------------------------------------------------------

  Frequencies (cm-1) [NB: Negative implies an imaginary mode]:

  589.18  702.11  719.29  820.32  859.33  861.97  888.38  960.19  982.93
 1033.97 1068.06 1102.17 1355.57 1377.96 1390.43 1433.37 1451.50 1469.29
 1475.99 1487.19 1492.16 1507.80 1515.44 1544.09


--------------------------------------------------------------------------------
  K point     39 =   0.062500  0.562500  0.812500  Weight =    0.004
--------------------------------------------------------------------------------

  Frequencies (cm-1) [NB: Negative implies an imaginary mode]:

  566.37  623.85  716.36  760.77  779.23  912.83  977.68  980.16 1053.67
 1081.16 1111.62 1134.90 1285.48 1305.59 1383.20 1407.97 1446.23 1455.40
 1469.00 1483.83 1513.87 1523.36 1529.85 1561.41


--------------------------------------------------------------------------------
  K point     40 =   0.062500  0.562500  0.937500  Weight =    0.004
--------------------------------------------------------------------------------

  Frequencies (cm-1) [NB: Negative implies an imaginary mode]:

  575.24  580.17  716.43  726.62  727.75  878.44 1070.42 1070.42 1109.00
 1109.00 1135.49 1135.49 1219.87 1219.87 1396.77 1396.77 1428.36 1428.36
 1478.33 1481.27 1525.93 1527.39 1540.67 1568.90


--------------------------------------------------------------------------------
  K point     41 =   0.062500  0.687500  0.062500  Weight =    0.004
--------------------------------------------------------------------------------

  Frequencies (cm-1) [NB: Negative implies an imaginary mode]:

  414.10  426.14  543.66  861.79  867.67 1025.14 1060.08 1060.08 1115.67
 1115.67 1148.33 1148.33 1242.37 1242.37 1379.40 1379.40 1418.06 1418.06
 1419.67 1424.12 1500.09 1561.66 1561.88 1587.14


--------------------------------------------------------------------------------
  K point     42 =   0.062500  0.687500  0.187500  Weight =    0.004
--------------------------------------------------------------------------------

  Frequencies (cm-1) [NB: Negative implies an imaginary mode]:

  419.35  484.76  635.69  857.23  889.79  978.36  994.34 1029.19 1031.24
 1107.99 1112.24 1152.91 1281.75 1327.42 1349.19 1411.25 1412.39 1435.71
 1436.30 1450.14 1489.06 1547.49 1553.81 1582.87


--------------------------------------------------------------------------------
  K point     43 =   0.062500  0.687500  0.312500  Weight =    0.004
--------------------------------------------------------------------------------

  Frequencies (cm-1) [NB: Negative implies an imaginary mode]:

  481.01  585.41  748.10  853.88  853.88  931.11  931.11  934.07 1044.90
 1044.90 1076.78 1139.13 1330.21 1348.47 1397.88 1397.88 1453.15 1453.15
 1467.17 1467.17 1470.04 1523.72 1538.12 1569.31


--------------------------------------------------------------------------------
  K point     44 =   0.062500  0.687500  0.437500  Weight =    0.004
--------------------------------------------------------------------------------

  Frequencies (cm-1) [NB: Negative implies an imaginary mode]:

  589.18  702.11  719.29  820.32  859.33  861.97  888.38  960.19  982.93
 1033.97 1068.06 1102.17 1355.57 1377.96 1390.43 1433.37 1451.50 1469.29
 1475.99 1487.19 1492.16 1507.80 1515.44 1544.09


--------------------------------------------------------------------------------
  K point     45 =   0.062500  0.687500  0.562500  Weight =    0.004
--------------------------------------------------------------------------------

  Frequencies (cm-1) [NB: Negative implies an imaginary mode]:

  589.18  702.11  719.29  820.32  859.33  861.97  888.38  960.19  982.93
 1033.97 1068.06 1102.17 1355.57 1377.96 1390.43 1433.37 1451.50 1469.29
 1475.99 1487.19 1492.16 1507.80 1515.44 1544.09


--------------------------------------------------------------------------------
  K point     46 =   0.062500  0.687500  0.687500  Weight =    0.004
--------------------------------------------------------------------------------

  Frequencies (cm-1) [NB: Negative implies an imaginary mode]:

  481.01  585.41  748.10  853.88  853.88  931.11  931.11  934.07 1044.90
 1044.90 1076.78 1139.13 1330.21 1348.47 1397.88 1397.88 1453.15 1453.15
 1467.17 1467.17 1470.04 1523.72 1538.12 1569.31


--------------------------------------------------------------------------------
  K point     47 =   0.062500  0.687500  0.812500  Weight =    0.004
--------------------------------------------------------------------------------

  Frequencies (cm-1) [NB: Negative implies an imaginary mode]:

  419.35  484.76  635.69  857.23  889.79  978.36  994.34 1029.19 1031.24
 1107.99 1112.24 1152.91 1281.75 1327.42 1349.19 1411.25 1412.39 1435.71
 1436.30 1450.14 1489.06 1547.49 1553.81 1582.87


--------------------------------------------------------------------------------
  K point     48 =   0.062500  0.687500  0.937500  Weight =    0.004
--------------------------------------------------------------------------------

  Frequencies (cm-1) [NB: Negative implies an imaginary mode]:

  414.10  426.14  543.66  861.79  867.67 1025.14 1060.08 1060.08 1115.67
 1115.67 1148.33 1148.33 1242.37 1242.37 1379.40 1379.40 1418.06 1418.06
 1419.67 1424.12 1500.09 1561.66 1561.88 1587.14


--------------------------------------------------------------------------------
  K point     49 =   0.062500  0.812500  0.062500  Weight =    0.004
--------------------------------------------------------------------------------

  Frequencies (cm-1) [NB: Negative implies an imaginary mode]:

  252.09  269.56  367.07  980.36  990.08 1058.62 1058.62 1097.19 1097.19
 1152.16 1193.93 1193.93 1273.05 1273.05 1347.81 1347.81 1353.23 1359.58
 1398.95 1398.95 1445.33 1584.97 1585.40 1597.52


--------------------------------------------------------------------------------
  K point     50 =   0.062500  0.812500  0.187500  Weight =    0.004
--------------------------------------------------------------------------------

  Frequencies (cm-1) [NB: Negative implies an imaginary mode]:

  299.83  355.37  490.81  977.76  977.76 1006.94 1006.94 1021.93 1125.58
 1128.54 1128.54 1163.77 1305.94 1311.54 1344.78 1344.78 1383.74 1383.74
 1430.00 1441.86 1441.86 1571.11 1574.67 1594.43


--------------------------------------------------------------------------------
  K point     51 =   0.062500  0.812500  0.312500  Weight =    0.004
--------------------------------------------------------------------------------

  Frequencies (cm-1) [NB: Negative implies an imaginary mode]:

  419.35  484.76  635.69  857.23  889.79  978.36  994.34 1029.19 1031.24
 1107.99 1112.24 1152.91 1281.75 1327.42 1349.19 1411.25 1412.39 1435.71
 1436.30 1450.14 1489.06 1547.49 1553.81 1582.87


--------------------------------------------------------------------------------
  K point     52 =   0.062500  0.812500  0.437500  Weight =    0.004
--------------------------------------------------------------------------------

  Frequencies (cm-1) [NB: Negative implies an imaginary mode]:

  566.37  623.85  716.36  760.77  779.23  912.83  977.68  980.16 1053.67
 1081.16 1111.62 1134.90 1285.48 1305.59 1383.20 1407.97 1446.23 1455.40
 1469.00 1483.83 1513.87 1523.36 1529.85 1561.41


--------------------------------------------------------------------------------
  K point     53 =   0.062500  0.812500  0.562500  Weight =    0.004
--------------------------------------------------------------------------------

  Frequencies (cm-1) [NB: Negative implies an imaginary mode]:

  566.37  623.85  716.36  760.77  779.23  912.83  977.68  980.16 1053.67
 1081.16 1111.62 1134.90 1285.48 1305.59 1383.20 1407.97 1446.23 1455.40
 1469.00 1483.83 1513.87 1523.36 1529.85 1561.41


--------------------------------------------------------------------------------
  K point     54 =   0.062500  0.812500  0.687500  Weight =    0.004
--------------------------------------------------------------------------------

  Frequencies (cm-1) [NB: Negative implies an imaginary mode]:

  419.35  484.76  635.69  857.23  889.79  978.36  994.34 1029.19 1031.24
 1107.99 1112.24 1152.91 1281.75 1327.42 1349.19 1411.25 1412.39 1435.71
 1436.30 1450.14 1489.06 1547.49 1553.81 1582.87


--------------------------------------------------------------------------------
  K point     55 =   0.062500  0.812500  0.812500  Weight =    0.004
--------------------------------------------------------------------------------

  Frequencies (cm-1) [NB: Negative implies an imaginary mode]:

  299.83  355.37  490.81  977.76  977.76 1006.94 1006.94 1021.93 1125.58
 1128.54 1128.54 1163.77 1305.94 1311.54 1344.78 1344.78 1383.74 1383.74
 1430.00 1441.86 1441.86 1571.11 1574.67 1594.43


--------------------------------------------------------------------------------
  K point     56 =   0.062500  0.812500  0.937500  Weight =    0.004
--------------------------------------------------------------------------------

  Frequencies (cm-1) [NB: Negative implies an imaginary mode]:

  252.09  269.56  367.07  980.36  990.08 1058.62 1058.62 1097.19 1097.19
 1152.16 1193.93 1193.93 1273.05 1273.05 1347.81 1347.81 1353.23 1359.58
 1398.95 1398.95 1445.33 1584.97 1585.40 1597.52


--------------------------------------------------------------------------------
  K point     57 =   0.062500  0.937500  0.062500  Weight =    0.004
--------------------------------------------------------------------------------

  Frequencies (cm-1) [NB: Negative implies an imaginary mode]:

  128.38  128.38  204.97 1065.88 1065.88 1065.88 1079.51 1079.51 1079.51
 1242.01 1242.01 1242.01 1294.13 1294.13 1294.13 1313.78 1313.78 1313.78
 1378.22 1378.22 1378.22 1597.24 1597.24 1601.43


--------------------------------------------------------------------------------
  K point     58 =   0.062500  0.937500  0.187500  Weight =    0.004
--------------------------------------------------------------------------------

  Frequencies (cm-1) [NB: Negative implies an imaginary mode]:

  252.09  269.56  367.07  980.36  990.08 1058.62 1058.62 1097.19 1097.19
 1152.16 1193.93 1193.93 1273.05 1273.05 1347.81 1347.81 1353.23 1359.58
 1398.95 1398.95 1445.33 1584.97 1585.40 1597.52


--------------------------------------------------------------------------------
  K point     59 =   0.062500  0.937500  0.312500  Weight =    0.004
--------------------------------------------------------------------------------

  Frequencies (cm-1) [NB: Negative implies an imaginary mode]:

  414.10  426.14  543.66  861.79  867.67 1025.14 1060.08 1060.08 1115.67
 1115.67 1148.33 1148.33 1242.37 1242.37 1379.40 1379.40 1418.06 1418.06
 1419.67 1424.12 1500.09 1561.66 1561.88 1587.14


--------------------------------------------------------------------------------
  K point     60 =   0.062500  0.937500  0.437500  Weight =    0.004
--------------------------------------------------------------------------------

  Frequencies (cm-1) [NB: Negative implies an imaginary mode]:

  575.24  580.17  716.43  726.62  727.75  878.44 1070.42 1070.42 1109.00
 1109.00 1135.49 1135.49 1219.87 1219.87 1396.77 1396.77 1428.36 1428.36
 1478.33 1481.27 1525.93 1527.39 1540.67 1568.90


--------------------------------------------------------------------------------
  K point     61 =   0.062500  0.937500  0.562500  Weight =    0.004
--------------------------------------------------------------------------------

  Frequencies (cm-1) [NB: Negative implies an imaginary mode]:

  575.24  580.17  716.43  726.62  727.75  878.44 1070.42 1070.42 1109.00
 1109.00 1135.49 1135.49 1219.87 1219.87 1396.77 1396.77 1428.36 1428.36
 1478.33 1481.27 1525.93 1527.39 1540.67 1568.90


--------------------------------------------------------------------------------
  K point     62 =   0.062500  0.937500  0.687500  Weight =    0.004
--------------------------------------------------------------------------------

  Frequencies (cm-1) [NB: Negative implies an imaginary mode]:

  414.10  426.14  543.66  861.79  867.67 1025.14 1060.08 1060.08 1115.67
 1115.67 1148.33 1148.33 1242.37 1242.37 1379.40 1379.40 1418.06 1418.06
 1419.67 1424.12 1500.09 1561.66 1561.88 1587.14


--------------------------------------------------------------------------------
  K point     63 =   0.062500  0.937500  0.812500  Weight =    0.004
--------------------------------------------------------------------------------

  Frequencies (cm-1) [NB: Negative implies an imaginary mode]:

  252.09  269.56  367.07  980.36  990.08 1058.62 1058.62 1097.19 1097.19
 1152.16 1193.93 1193.93 1273.05 1273.05 1347.81 1347.81 1353.23 1359.58
 1398.95 1398.95 1445.33 1584.97 1585.40 1597.52


--------------------------------------------------------------------------------
  K point     64 =   0.062500  0.937500  0.937500  Weight =    0.004
--------------------------------------------------------------------------------

  Frequencies (cm-1) [NB: Negative implies an imaginary mode]:

  128.38  128.38  204.97 1065.88 1065.88 1065.88 1079.51 1079.51 1079.51
 1242.01 1242.01 1242.01 1294.13 1294.13 1294.13 1313.78 1313.78 1313.78
 1378.22 1378.22 1378.22 1597.24 1597.24 1601.43


--------------------------------------------------------------------------------
  K point     65 =   0.187500  0.062500  0.062500  Weight =    0.004
--------------------------------------------------------------------------------

  Frequencies (cm-1) [NB: Negative implies an imaginary mode]:

  252.09  269.56  367.07  980.36  990.08 1058.62 1058.62 1097.19 1097.19
 1152.16 1193.93 1193.93 1273.05 1273.05 1347.81 1347.81 1353.23 1359.58
 1398.95 1398.95 1445.33 1584.97 1585.40 1597.52


--------------------------------------------------------------------------------
  K point     66 =   0.187500  0.062500  0.187500  Weight =    0.004
--------------------------------------------------------------------------------

  Frequencies (cm-1) [NB: Negative implies an imaginary mode]:

  299.83  355.37  490.81  977.76  977.76 1006.94 1006.94 1021.93 1125.58
 1128.54 1128.54 1163.77 1305.94 1311.54 1344.78 1344.78 1383.74 1383.74
 1430.00 1441.86 1441.86 1571.11 1574.67 1594.43


--------------------------------------------------------------------------------
  K point     67 =   0.187500  0.062500  0.312500  Weight =    0.004
--------------------------------------------------------------------------------

  Frequencies (cm-1) [NB: Negative implies an imaginary mode]:

  419.35  484.76  635.69  857.23  889.79  978.36  994.34 1029.19 1031.24
 1107.99 1112.24 1152.91 1281.75 1327.42 1349.19 1411.25 1412.39 1435.71
 1436.30 1450.14 1489.06 1547.49 1553.81 1582.87


--------------------------------------------------------------------------------
  K point     68 =   0.187500  0.062500  0.437500  Weight =    0.004
--------------------------------------------------------------------------------

  Frequencies (cm-1) [NB: Negative implies an imaginary mode]:

  566.37  623.85  716.36  760.77  779.23  912.83  977.68  980.16 1053.67
 1081.16 1111.62 1134.90 1285.48 1305.59 1383.20 1407.97 1446.23 1455.40
 1469.00 1483.83 1513.87 1523.36 1529.85 1561.41


--------------------------------------------------------------------------------
  K point     69 =   0.187500  0.062500  0.562500  Weight =    0.004
--------------------------------------------------------------------------------

  Frequencies (cm-1) [NB: Negative implies an imaginary mode]:

  566.37  623.85  716.36  760.77  779.23  912.83  977.68  980.16 1053.67
 1081.16 1111.62 1134.90 1285.48 1305.59 1383.20 1407.97 1446.23 1455.40
 1469.00 1483.83 1513.87 1523.36 1529.85 1561.41


--------------------------------------------------------------------------------
  K point     70 =   0.187500  0.062500  0.687500  Weight =    0.004
--------------------------------------------------------------------------------

  Frequencies (cm-1) [NB: Negative implies an imaginary mode]:

  419.35  484.76  635.69  857.23  889.79  978.36  994.34 1029.19 1031.24
 1107.99 1112.24 1152.91 1281.75 1327.42 1349.19 1411.25 1412.39 1435.71
 1436.30 1450.14 1489.06 1547.49 1553.81 1582.87


--------------------------------------------------------------------------------
  K point     71 =   0.187500  0.062500  0.812500  Weight =    0.004
--------------------------------------------------------------------------------

  Frequencies (cm-1) [NB: Negative implies an imaginary mode]:

  299.83  355.37  490.81  977.76  977.76 1006.94 1006.94 1021.93 1125.58
 1128.54 1128.54 1163.77 1305.94 1311.54 1344.78 1344.78 1383.74 1383.74
 1430.00 1441.86 1441.86 1571.11 1574.67 1594.43


--------------------------------------------------------------------------------
  K point     72 =   0.187500  0.062500  0.937500  Weight =    0.004
--------------------------------------------------------------------------------

  Frequencies (cm-1) [NB: Negative implies an imaginary mode]:

  252.09  269.56  367.07  980.36  990.08 1058.62 1058.62 1097.19 1097.19
 1152.16 1193.93 1193.93 1273.05 1273.05 1347.81 1347.81 1353.23 1359.58
 1398.95 1398.95 1445.33 1584.97 1585.40 1597.52


--------------------------------------------------------------------------------
  K point     73 =   0.187500  0.187500  0.062500  Weight =    0.004
--------------------------------------------------------------------------------

  Frequencies (cm-1) [NB: Negative implies an imaginary mode]:

  299.83  355.37  490.81  977.76  977.76 1006.94 1006.94 1021.93 1125.58
 1128.54 1128.54 1163.77 1305.94 1311.54 1344.78 1344.78 1383.74 1383.74
 1430.00 1441.86 1441.86 1571.11 1574.67 1594.43


--------------------------------------------------------------------------------
  K point     74 =   0.187500  0.187500  0.187500  Weight =    0.004
--------------------------------------------------------------------------------

  Frequencies (cm-1) [NB: Negative implies an imaginary mode]:

  374.31  374.31  594.59  955.36  955.36  955.36 1018.68 1018.68 1018.68
 1124.96 1124.96 1124.96 1355.01 1355.01 1355.01 1376.60 1376.60 1376.60
 1448.66 1448.66 1448.66 1560.09 1560.09 1592.56


--------------------------------------------------------------------------------
  K point     75 =   0.187500  0.187500  0.312500  Weight =    0.004
--------------------------------------------------------------------------------

  Frequencies (cm-1) [NB: Negative implies an imaginary mode]:

  463.12  487.15  721.54  854.75  884.83  939.18  939.18 1011.91 1011.91
 1054.12 1131.64 1131.64 1345.90 1345.90 1390.21 1390.21 1410.38 1439.12
 1454.27 1454.27 1481.05 1538.07 1538.31 1581.30


--------------------------------------------------------------------------------
  K point     76 =   0.187500  0.187500  0.437500  Weight =    0.004
--------------------------------------------------------------------------------

  Frequencies (cm-1) [NB: Negative implies an imaginary mode]:

  594.24  612.50  737.64  739.97  846.61  931.93  931.93  959.51 1000.21
 1000.21 1141.41 1141.41 1334.83 1334.83 1404.26 1404.26 1456.09 1456.09
 1462.11 1480.86 1505.23 1511.92 1522.13 1557.82


--------------------------------------------------------------------------------
  K point     77 =   0.187500  0.187500  0.562500  Weight =    0.004
--------------------------------------------------------------------------------

  Frequencies (cm-1) [NB: Negative implies an imaginary mode]:

  594.24  612.50  737.64  739.97  846.61  931.93  931.93  959.51 1000.21
 1000.21 1141.41 1141.41 1334.83 1334.83 1404.26 1404.26 1456.09 1456.09
 1462.11 1480.86 1505.23 1511.92 1522.13 1557.82


--------------------------------------------------------------------------------
  K point     78 =   0.187500  0.187500  0.687500  Weight =    0.004
--------------------------------------------------------------------------------

  Frequencies (cm-1) [NB: Negative implies an imaginary mode]:

  463.12  487.15  721.54  854.75  884.83  939.18  939.18 1011.91 1011.91
 1054.12 1131.64 1131.64 1345.90 1345.90 1390.21 1390.21 1410.38 1439.12
 1454.27 1454.27 1481.05 1538.07 1538.31 1581.30


--------------------------------------------------------------------------------
  K point     79 =   0.187500  0.187500  0.812500  Weight =    0.004
--------------------------------------------------------------------------------

  Frequencies (cm-1) [NB: Negative implies an imaginary mode]:

  374.31  374.31  594.59  955.36  955.36  955.36 1018.68 1018.68 1018.68
 1124.96 1124.96 1124.96 1355.01 1355.01 1355.01 1376.60 1376.60 1376.60
 1448.66 1448.66 1448.66 1560.09 1560.09 1592.56


--------------------------------------------------------------------------------
  K point     80 =   0.187500  0.187500  0.937500  Weight =    0.004
--------------------------------------------------------------------------------

  Frequencies (cm-1) [NB: Negative implies an imaginary mode]:

  299.83  355.37  490.81  977.76  977.76 1006.94 1006.94 1021.93 1125.58
 1128.54 1128.54 1163.77 1305.94 1311.54 1344.78 1344.78 1383.74 1383.74
 1430.00 1441.86 1441.86 1571.11 1574.67 1594.43


--------------------------------------------------------------------------------
  K point     81 =   0.187500  0.312500  0.062500  Weight =    0.004
--------------------------------------------------------------------------------

  Frequencies (cm-1) [NB: Negative implies an imaginary mode]:

  419.35  484.76  635.69  857.23  889.79  978.36  994.34 1029.19 1031.24
 1107.99 1112.24 1152.91 1281.75 1327.42 1349.19 1411.25 1412.39 1435.71
 1436.30 1450.14 1489.06 1547.49 1553.81 1582.87


--------------------------------------------------------------------------------
  K point     82 =   0.187500  0.312500  0.187500  Weight =    0.004
--------------------------------------------------------------------------------

  Frequencies (cm-1) [NB: Negative implies an imaginary mode]:

  463.12  487.15  721.54  854.75  884.83  939.18  939.18 1011.91 1011.91
 1054.12 1131.64 1131.64 1345.90 1345.90 1390.21 1390.21 1410.38 1439.12
 1454.27 1454.27 1481.05 1538.07 1538.31 1581.30


--------------------------------------------------------------------------------
  K point     83 =   0.187500  0.312500  0.312500  Weight =    0.004
--------------------------------------------------------------------------------

  Frequencies (cm-1) [NB: Negative implies an imaginary mode]:

  518.40  564.64  827.75  846.31  846.31  894.48  894.48  895.46  981.35
 1086.83 1086.83 1147.70 1370.59 1382.39 1401.47 1401.47 1447.36 1447.36
 1465.01 1466.17 1466.17 1514.87 1520.44 1570.08


--------------------------------------------------------------------------------
  K point     84 =   0.187500  0.312500  0.437500  Weight =    0.004
--------------------------------------------------------------------------------

  Frequencies (cm-1) [NB: Negative implies an imaginary mode]:

  612.56  668.57  730.05  779.65  845.94  862.29  916.93  930.41  947.41
 1018.80 1119.18 1142.55 1376.51 1388.13 1409.96 1438.31 1447.78 1462.13
 1467.09 1476.22 1485.49 1497.84 1506.60 1545.51


--------------------------------------------------------------------------------
  K point     85 =   0.187500  0.312500  0.562500  Weight =    0.004
--------------------------------------------------------------------------------

  Frequencies (cm-1) [NB: Negative implies an imaginary mode]:

  612.56  668.57  730.05  779.65  845.94  862.29  916.93  930.41  947.41
 1018.80 1119.18 1142.55 1376.51 1388.13 1409.96 1438.31 1447.78 1462.13
 1467.09 1476.22 1485.49 1497.84 1506.60 1545.51


--------------------------------------------------------------------------------
  K point     86 =   0.187500  0.312500  0.687500  Weight =    0.004
--------------------------------------------------------------------------------

  Frequencies (cm-1) [NB: Negative implies an imaginary mode]:

  518.40  564.64  827.75  846.31  846.31  894.48  894.48  895.46  981.35
 1086.83 1086.83 1147.70 1370.59 1382.39 1401.47 1401.47 1447.36 1447.36
 1465.01 1466.17 1466.17 1514.87 1520.44 1570.08


--------------------------------------------------------------------------------
  K point     87 =   0.187500  0.312500  0.812500  Weight =    0.004
--------------------------------------------------------------------------------

  Frequencies (cm-1) [NB: Negative implies an imaginary mode]:

  463.12  487.15  721.54  854.75  884.83  939.18  939.18 1011.91 1011.91
 1054.12 1131.64 1131.64 1345.90 1345.90 1390.21 1390.21 1410.38 1439.12
 1454.27 1454.27 1481.05 1538.07 1538.31 1581.30


--------------------------------------------------------------------------------
  K point     88 =   0.187500  0.312500  0.937500  Weight =    0.004
--------------------------------------------------------------------------------

  Frequencies (cm-1) [NB: Negative implies an imaginary mode]:

  419.35  484.76  635.69  857.23  889.79  978.36  994.34 1029.19 1031.24
 1107.99 1112.24 1152.91 1281.75 1327.42 1349.19 1411.25 1412.39 1435.71
 1436.30 1450.14 1489.06 1547.49 1553.81 1582.87


--------------------------------------------------------------------------------
  K point     89 =   0.187500  0.437500  0.062500  Weight =    0.004
--------------------------------------------------------------------------------

  Frequencies (cm-1) [NB: Negative implies an imaginary mode]:

  566.37  623.85  716.36  760.77  779.23  912.83  977.68  980.16 1053.67
 1081.16 1111.62 1134.90 1285.48 1305.59 1383.20 1407.97 1446.23 1455.40
 1469.00 1483.83 1513.87 1523.36 1529.85 1561.41


--------------------------------------------------------------------------------
  K point     90 =   0.187500  0.437500  0.187500  Weight =    0.004
--------------------------------------------------------------------------------

  Frequencies (cm-1) [NB: Negative implies an imaginary mode]:

  594.24  612.50  737.64  739.97  846.61  931.93  931.93  959.51 1000.21
 1000.21 1141.41 1141.41 1334.83 1334.83 1404.26 1404.26 1456.09 1456.09
 1462.11 1480.86 1505.23 1511.92 1522.13 1557.82


--------------------------------------------------------------------------------
  K point     91 =   0.187500  0.437500  0.312500  Weight =    0.004
--------------------------------------------------------------------------------

  Frequencies (cm-1) [NB: Negative implies an imaginary mode]:

  612.56  668.57  730.05  779.65  845.94  862.29  916.93  930.41  947.41
 1018.80 1119.18 1142.55 1376.51 1388.13 1409.96 1438.31 1447.78 1462.13
 1467.09 1476.22 1485.49 1497.84 1506.60 1545.51


--------------------------------------------------------------------------------
  K point     92 =   0.187500  0.437500  0.437500  Weight =    0.004
--------------------------------------------------------------------------------

  Frequencies (cm-1) [NB: Negative implies an imaginary mode]:

  665.48  747.38  749.13  749.13  796.11  832.53  832.53  890.50 1009.61
 1074.36 1074.36 1117.92 1407.41 1428.70 1428.70 1435.38 1459.70 1464.14
 1464.14 1476.62 1481.38 1487.99 1487.99 1521.71


--------------------------------------------------------------------------------
  K point     93 =   0.187500  0.437500  0.562500  Weight =    0.004
--------------------------------------------------------------------------------

  Frequencies (cm-1) [NB: Negative implies an imaginary mode]:

  665.48  747.38  749.13  749.13  796.11  832.53  832.53  890.50 1009.61
 1074.36 1074.36 1117.92 1407.41 1428.70 1428.70 1435.38 1459.70 1464.14
 1464.14 1476.62 1481.38 1487.99 1487.99 1521.71


--------------------------------------------------------------------------------
  K point     94 =   0.187500  0.437500  0.687500  Weight =    0.004
--------------------------------------------------------------------------------

  Frequencies (cm-1) [NB: Negative implies an imaginary mode]:

  612.56  668.57  730.05  779.65  845.94  862.29  916.93  930.41  947.41
 1018.80 1119.18 1142.55 1376.51 1388.13 1409.96 1438.31 1447.78 1462.13
 1467.09 1476.22 1485.49 1497.84 1506.60 1545.51


--------------------------------------------------------------------------------
  K point     95 =   0.187500  0.437500  0.812500  Weight =    0.004
--------------------------------------------------------------------------------

  Frequencies (cm-1) [NB: Negative implies an imaginary mode]:

  594.24  612.50  737.64  739.97  846.61  931.93  931.93  959.51 1000.21
 1000.21 1141.41 1141.41 1334.83 1334.83 1404.26 1404.26 1456.09 1456.09
 1462.11 1480.86 1505.23 1511.92 1522.13 1557.82


--------------------------------------------------------------------------------
  K point     96 =   0.187500  0.437500  0.937500  Weight =    0.004
--------------------------------------------------------------------------------

  Frequencies (cm-1) [NB: Negative implies an imaginary mode]:

  566.37  623.85  716.36  760.77  779.23  912.83  977.68  980.16 1053.67
 1081.16 1111.62 1134.90 1285.48 1305.59 1383.20 1407.97 1446.23 1455.40
 1469.00 1483.83 1513.87 1523.36 1529.85 1561.41


--------------------------------------------------------------------------------
  K point     97 =   0.187500  0.562500  0.062500  Weight =    0.004
--------------------------------------------------------------------------------

  Frequencies (cm-1) [NB: Negative implies an imaginary mode]:

  566.37  623.85  716.36  760.77  779.23  912.83  977.68  980.16 1053.67
 1081.16 1111.62 1134.90 1285.48 1305.59 1383.20 1407.97 1446.23 1455.40
 1469.00 1483.83 1513.87 1523.36 1529.85 1561.41


--------------------------------------------------------------------------------
  K point     98 =   0.187500  0.562500  0.187500  Weight =    0.004
--------------------------------------------------------------------------------

  Frequencies (cm-1) [NB: Negative implies an imaginary mode]:

  594.24  612.50  737.64  739.97  846.61  931.93  931.93  959.51 1000.21
 1000.21 1141.41 1141.41 1334.83 1334.83 1404.26 1404.26 1456.09 1456.09
 1462.11 1480.86 1505.23 1511.92 1522.13 1557.82


--------------------------------------------------------------------------------
  K point     99 =   0.187500  0.562500  0.312500  Weight =    0.004
--------------------------------------------------------------------------------

  Frequencies (cm-1) [NB: Negative implies an imaginary mode]:

  612.56  668.57  730.05  779.65  845.94  862.29  916.93  930.41  947.41
 1018.80 1119.18 1142.55 1376.51 1388.13 1409.96 1438.31 1447.78 1462.13
 1467.09 1476.22 1485.49 1497.84 1506.60 1545.51


--------------------------------------------------------------------------------
  K point    100 =   0.187500  0.562500  0.437500  Weight =    0.004
--------------------------------------------------------------------------------

  Frequencies (cm-1) [NB: Negative implies an imaginary mode]:

  665.48  747.38  749.13  749.13  796.11  832.53  832.53  890.50 1009.61
 1074.36 1074.36 1117.92 1407.41 1428.70 1428.70 1435.38 1459.70 1464.14
 1464.14 1476.62 1481.38 1487.99 1487.99 1521.71


--------------------------------------------------------------------------------
  K point    101 =   0.187500  0.562500  0.562500  Weight =    0.004
--------------------------------------------------------------------------------

  Frequencies (cm-1) [NB: Negative implies an imaginary mode]:

  665.48  747.38  749.13  749.13  796.11  832.53  832.53  890.50 1009.61
 1074.36 1074.36 1117.92 1407.41 1428.70 1428.70 1435.38 1459.70 1464.14
 1464.14 1476.62 1481.38 1487.99 1487.99 1521.71


--------------------------------------------------------------------------------
  K point    102 =   0.187500  0.562500  0.687500  Weight =    0.004
--------------------------------------------------------------------------------

  Frequencies (cm-1) [NB: Negative implies an imaginary mode]:

  612.56  668.57  730.05  779.65  845.94  862.29  916.93  930.41  947.41
 1018.80 1119.18 1142.55 1376.51 1388.13 1409.96 1438.31 1447.78 1462.13
 1467.09 1476.22 1485.49 1497.84 1506.60 1545.51


--------------------------------------------------------------------------------
  K point    103 =   0.187500  0.562500  0.812500  Weight =    0.004
--------------------------------------------------------------------------------

  Frequencies (cm-1) [NB: Negative implies an imaginary mode]:

  594.24  612.50  737.64  739.97  846.61  931.93  931.93  959.51 1000.21
 1000.21 1141.41 1141.41 1334.83 1334.83 1404.26 1404.26 1456.09 1456.09
 1462.11 1480.86 1505.23 1511.92 1522.13 1557.82


--------------------------------------------------------------------------------
  K point    104 =   0.187500  0.562500  0.937500  Weight =    0.004
--------------------------------------------------------------------------------

  Frequencies (cm-1) [NB: Negative implies an imaginary mode]:

  566.37  623.85  716.36  760.77  779.23  912.83  977.68  980.16 1053.67
 1081.16 1111.62 1134.90 1285.48 1305.59 1383.20 1407.97 1446.23 1455.40
 1469.00 1483.83 1513.87 1523.36 1529.85 1561.41


--------------------------------------------------------------------------------
  K point    105 =   0.187500  0.687500  0.062500  Weight =    0.004
--------------------------------------------------------------------------------

  Frequencies (cm-1) [NB: Negative implies an imaginary mode]:

  419.35  484.76  635.69  857.23  889.79  978.36  994.34 1029.19 1031.24
 1107.99 1112.24 1152.91 1281.75 1327.42 1349.19 1411.25 1412.39 1435.71
 1436.30 1450.14 1489.06 1547.49 1553.81 1582.87


--------------------------------------------------------------------------------
[...]
--------------------------------------------------------------------------------
  Zero point energy            =        1.736040 eV
  Entropy                      =        0.000001 eV/K
                               =        0.121418 J/(mol.K)
  Helmholtz free-energy        =      -57.213473 eV
                               =    -5520.225033 kJmol-1
  Free energy (equipartition)  =      -58.496661 eV
  - T*S       (equipartition)  =        0.308061 eV
  Uvib        (equipartition)  =        0.144771 eV
  Mean kinetic energy          =        0.868054 eV
  Heat capacity - const volume =        0.000004 eV/K
                               =        0.396712 J/(mol.K)
--------------------------------------------------------------------------------
  Phonon properties (per mole of unit cells): Temperature =     80.000 K
--------------------------------------------------------------------------------
  Zero point energy            =        1.736040 eV
  Entropy                      =        0.000002 eV/K
                               =        0.187066 J/(mol.K)
  Helmholtz free-energy        =      -57.213488 eV
                               =    -5520.226560 kJmol-1
  Free energy (equipartition)  =      -58.454064 eV
  - T*S       (equipartition)  =        0.329976 eV
  Uvib        (equipartition)  =        0.165453 eV
  Mean kinetic energy          =        0.868080 eV
  Heat capacity - const volume =        0.000006 eV/K
                               =        0.601062 J/(mol.K)
--------------------------------------------------------------------------------
  Phonon properties (per mole of unit cells): Temperature =     90.000 K
--------------------------------------------------------------------------------
  Zero point energy            =        1.736040 eV
  Entropy                      =        0.000003 eV/K
                               =        0.272764 J/(mol.K)
  Helmholtz free-energy        =      -57.213512 eV
                               =    -5520.228841 kJmol-1
  Free energy (equipartition)  =      -58.414059 eV
  - T*S       (equipartition)  =        0.349300 eV
  Uvib        (equipartition)  =        0.186134 eV
  Mean kinetic energy          =        0.868118 eV
  Heat capacity - const volume =        0.000009 eV/K
                               =        0.871494 J/(mol.K)
--------------------------------------------------------------------------------
  Phonon properties (per mole of unit cells): Temperature =    100.000 K
--------------------------------------------------------------------------------
  Zero point energy            =        1.736040 eV
  Entropy                      =        0.000004 eV/K
                               =        0.381925 J/(mol.K)
  Helmholtz free-energy        =      -57.213546 eV
                               =    -5520.232093 kJmol-1
  Free energy (equipartition)  =      -58.376357 eV
  - T*S       (equipartition)  =        0.366321 eV
  Uvib        (equipartition)  =        0.206816 eV
  Mean kinetic energy          =        0.868172 eV
  Heat capacity - const volume =        0.000013 eV/K
                               =        1.221121 J/(mol.K)
--------------------------------------------------------------------------------
  Phonon properties (per mole of unit cells): Temperature =    110.000 K
--------------------------------------------------------------------------------
  Zero point energy            =        1.736040 eV
  Entropy                      =        0.000005 eV/K
                               =        0.518273 J/(mol.K)
  Helmholtz free-energy        =      -57.213592 eV
                               =    -5520.236570 kJmol-1
  Free energy (equipartition)  =      -58.340726 eV
  - T*S       (equipartition)  =        0.381270 eV
  Uvib        (equipartition)  =        0.227498 eV
  Mean kinetic energy          =        0.868246 eV
  Heat capacity - const volume =        0.000017 eV/K
                               =        1.663668 J/(mol.K)
--------------------------------------------------------------------------------
  Phonon properties (per mole of unit cells): Temperature =    120.000 K
--------------------------------------------------------------------------------
  Zero point energy            =        1.736040 eV
  Entropy                      =        0.000007 eV/K
                               =        0.685746 J/(mol.K)
  Helmholtz free-energy        =      -57.213654 eV
                               =    -5520.242563 kJmol-1
  Free energy (equipartition)  =      -58.306978 eV
  - T*S       (equipartition)  =        0.394336 eV
  Uvib        (equipartition)  =        0.248179 eV
  Mean kinetic energy          =        0.868346 eV
  Heat capacity - const volume =        0.000023 eV/K
                               =        2.212503 J/(mol.K)
--------------------------------------------------------------------------------
  Phonon properties (per mole of unit cells): Temperature =    130.000 K
--------------------------------------------------------------------------------
  Zero point energy            =        1.736040 eV
  Entropy                      =        0.000009 eV/K
                               =        0.888361 J/(mol.K)
  Helmholtz free-energy        =      -57.213736 eV
                               =    -5520.250402 kJmol-1
  Free energy (equipartition)  =      -58.274955 eV
  - T*S       (equipartition)  =        0.405677 eV
  Uvib        (equipartition)  =        0.268861 eV
  Mean kinetic energy          =        0.868477 eV
  Heat capacity - const volume =        0.000030 eV/K
                               =        2.879686 J/(mol.K)
--------------------------------------------------------------------------------
  Phonon properties (per mole of unit cells): Temperature =    140.000 K
--------------------------------------------------------------------------------
  Zero point energy            =        1.736040 eV
  Entropy                      =        0.000012 eV/K
                               =        1.130064 J/(mol.K)
  Helmholtz free-energy        =      -57.213840 eV
                               =    -5520.260460 kJmol-1
  Free energy (equipartition)  =      -58.244525 eV
  - T*S       (equipartition)  =        0.415426 eV
  Uvib        (equipartition)  =        0.289542 eV
  Mean kinetic energy          =        0.868647 eV
  Heat capacity - const volume =        0.000038 eV/K
                               =        3.675264 J/(mol.K)
--------------------------------------------------------------------------------
  Phonon properties (per mole of unit cells): Temperature =    150.000 K
--------------------------------------------------------------------------------
  Zero point energy            =        1.736040 eV
  Entropy                      =        0.000015 eV/K
                               =        1.414600 J/(mol.K)
  Helmholtz free-energy        =      -57.213971 eV
                               =    -5520.273146 kJmol-1
  Free energy (equipartition)  =      -58.215573 eV
  - T*S       (equipartition)  =        0.423696 eV
  Uvib        (equipartition)  =        0.310224 eV
  Mean kinetic energy          =        0.868861 eV
  Heat capacity - const volume =        0.000048 eV/K
                               =        4.606884 J/(mol.K)
--------------------------------------------------------------------------------
  Phonon properties (per mole of unit cells): Temperature =    160.000 K
--------------------------------------------------------------------------------
  Zero point energy            =        1.736040 eV
  Entropy                      =        0.000018 eV/K
                               =        1.745399 J/(mol.K)
  Helmholtz free-energy        =      -57.214135 eV
                               =    -5520.288906 kJmol-1
  Free energy (equipartition)  =      -58.188001 eV
  - T*S       (equipartition)  =        0.430586 eV
  Uvib        (equipartition)  =        0.330906 eV
  Mean kinetic energy          =        0.869127 eV
  Heat capacity - const volume =        0.000059 eV/K
                               =        5.679676 J/(mol.K)
--------------------------------------------------------------------------------
  Phonon properties (per mole of unit cells): Temperature =    170.000 K
--------------------------------------------------------------------------------
  Zero point energy            =        1.736040 eV
  Entropy                      =        0.000022 eV/K
                               =        2.125504 J/(mol.K)
  Helmholtz free-energy        =      -57.214335 eV
                               =    -5520.308219 kJmol-1
  Free energy (equipartition)  =      -58.161723 eV
  - T*S       (equipartition)  =        0.436183 eV
  Uvib        (equipartition)  =        0.351587 eV
  Mean kinetic energy          =        0.869452 eV
  Heat capacity - const volume =        0.000071 eV/K
                               =        6.896345 J/(mol.K)
--------------------------------------------------------------------------------
  Phonon properties (per mole of unit cells): Temperature =    180.000 K
--------------------------------------------------------------------------------
  Zero point energy            =        1.736040 eV
  Entropy                      =        0.000027 eV/K
                               =        2.557529 J/(mol.K)
  Helmholtz free-energy        =      -57.214577 eV
                               =    -5520.331590 kJmol-1
  Free energy (equipartition)  =      -58.136662 eV
  - T*S       (equipartition)  =        0.440563 eV
  Uvib        (equipartition)  =        0.372269 eV
  Mean kinetic energy          =        0.869844 eV
  Heat capacity - const volume =        0.000086 eV/K
                               =        8.257367 J/(mol.K)
--------------------------------------------------------------------------------
  Phonon properties (per mole of unit cells): Temperature =    190.000 K
--------------------------------------------------------------------------------
  Zero point energy            =        1.736040 eV
  Entropy                      =        0.000032 eV/K
                               =        3.043633 J/(mol.K)
  Helmholtz free-energy        =      -57.214867 eV
                               =    -5520.359550 kJmol-1
  Free energy (equipartition)  =      -58.112750 eV
  - T*S       (equipartition)  =        0.443793 eV
  Uvib        (equipartition)  =        0.392951 eV
  Mean kinetic energy          =        0.870310 eV
  Heat capacity - const volume =        0.000101 eV/K
                               =        9.761232 J/(mol.K)
--------------------------------------------------------------------------------
  Phonon properties (per mole of unit cells): Temperature =    200.000 K
--------------------------------------------------------------------------------
  Zero point energy            =        1.736040 eV
  Entropy                      =        0.000037 eV/K
                               =        3.585520 J/(mol.K)
  Helmholtz free-energy        =      -57.215210 eV
                               =    -5520.392648 kJmol-1
  Free energy (equipartition)  =      -58.089928 eV
  - T*S       (equipartition)  =        0.445934 eV
  Uvib        (equipartition)  =        0.413632 eV
  Mean kinetic energy          =        0.870858 eV
  Heat capacity - const volume =        0.000118 eV/K
                               =       11.404697 J/(mol.K)
--------------------------------------------------------------------------------
  Phonon properties (per mole of unit cells): Temperature =    210.000 K
--------------------------------------------------------------------------------
  Zero point energy            =        1.736040 eV
  Entropy                      =        0.000043 eV/K
                               =        4.184450 J/(mol.K)
  Helmholtz free-energy        =      -57.215612 eV
                               =    -5520.431450 kJmol-1
  Free energy (equipartition)  =      -58.068140 eV
  - T*S       (equipartition)  =        0.447040 eV
  Uvib        (equipartition)  =        0.434314 eV
  Mean kinetic energy          =        0.871494 eV
  Heat capacity - const volume =        0.000137 eV/K
                               =       13.183028 J/(mol.K)
--------------------------------------------------------------------------------
  Phonon properties (per mole of unit cells): Temperature =    220.000 K
--------------------------------------------------------------------------------
  Zero point energy            =        1.736040 eV
  Entropy                      =        0.000050 eV/K
                               =        4.841256 J/(mol.K)
  Helmholtz free-energy        =      -57.216079 eV
                               =    -5520.476530 kJmol-1
  Free energy (equipartition)  =      -58.047337 eV
  - T*S       (equipartition)  =        0.447161 eV
  Uvib        (equipartition)  =        0.454995 eV
  Mean kinetic energy          =        0.872226 eV
  Heat capacity - const volume =        0.000156 eV/K
                               =       15.090220 J/(mol.K)
--------------------------------------------------------------------------------
  Phonon properties (per mole of unit cells): Temperature =    230.000 K
--------------------------------------------------------------------------------
  Zero point energy            =        1.736040 eV
  Entropy                      =        0.000058 eV/K
                               =        5.556368 J/(mol.K)
  Helmholtz free-energy        =      -57.216617 eV
                               =    -5520.528470 kJmol-1
  Free energy (equipartition)  =      -58.027474 eV
  - T*S       (equipartition)  =        0.446342 eV
  Uvib        (equipartition)  =        0.475677 eV
  Mean kinetic energy          =        0.873061 eV
  Heat capacity - const volume =        0.000177 eV/K
                               =       17.119211 J/(mol.K)
--------------------------------------------------------------------------------
  Phonon properties (per mole of unit cells): Temperature =    240.000 K
--------------------------------------------------------------------------------
  Zero point energy            =        1.736040 eV
  Entropy                      =        0.000066 eV/K
                               =        6.329842 J/(mol.K)
  Helmholtz free-energy        =      -57.217233 eV
                               =    -5520.587852 kJmol-1
  Free energy (equipartition)  =      -58.008511 eV
  - T*S       (equipartition)  =        0.444623 eV
  Uvib        (equipartition)  =        0.496359 eV
  Mean kinetic energy          =        0.874003 eV
  Heat capacity - const volume =        0.000200 eV/K
                               =       19.262073 J/(mol.K)
--------------------------------------------------------------------------------
  Phonon properties (per mole of unit cells): Temperature =    250.000 K
--------------------------------------------------------------------------------
  Zero point energy            =        1.736040 eV
  Entropy                      =        0.000074 eV/K
                               =        7.161390 J/(mol.K)
  Helmholtz free-energy        =      -57.217932 eV
                               =    -5520.655260 kJmol-1
  Free energy (equipartition)  =      -57.990410 eV
  - T*S       (equipartition)  =        0.442043 eV
  Uvib        (equipartition)  =        0.517040 eV
  Mean kinetic energy          =        0.875059 eV
  Heat capacity - const volume =        0.000223 eV/K
                               =       21.510202 J/(mol.K)
--------------------------------------------------------------------------------
  Phonon properties (per mole of unit cells): Temperature =    260.000 K
--------------------------------------------------------------------------------
  Zero point energy            =        1.736040 eV
  Entropy                      =        0.000083 eV/K
                               =        8.050408 J/(mol.K)
  Helmholtz free-energy        =      -57.218719 eV
                               =    -5520.731272 kJmol-1
  Free energy (equipartition)  =      -57.973137 eV
  - T*S       (equipartition)  =        0.438635 eV
  Uvib        (equipartition)  =        0.537722 eV
  Mean kinetic energy          =        0.876234 eV
  Heat capacity - const volume =        0.000247 eV/K
                               =       23.854487 J/(mol.K)
--------------------------------------------------------------------------------
  Phonon properties (per mole of unit cells): Temperature =    270.000 K
--------------------------------------------------------------------------------
  Zero point energy            =        1.736040 eV
  Entropy                      =        0.000093 eV/K
                               =        8.996011 J/(mol.K)
  Helmholtz free-energy        =      -57.219602 eV
                               =    -5520.816457 kJmol-1
  Free energy (equipartition)  =      -57.956659 eV
  - T*S       (equipartition)  =        0.434431 eV
  Uvib        (equipartition)  =        0.558403 eV
  Mean kinetic energy          =        0.877533 eV
  Heat capacity - const volume =        0.000272 eV/K
                               =       26.285481 J/(mol.K)
--------------------------------------------------------------------------------
  Phonon properties (per mole of unit cells): Temperature =    280.000 K
--------------------------------------------------------------------------------
  Zero point energy            =        1.736040 eV
  Entropy                      =        0.000104 eV/K
                               =        9.997063 J/(mol.K)
  Helmholtz free-energy        =      -57.220586 eV
                               =    -5520.911377 kJmol-1
  Free energy (equipartition)  =      -57.940947 eV
  - T*S       (equipartition)  =        0.429461 eV
  Uvib        (equipartition)  =        0.579085 eV
  Mean kinetic energy          =        0.878959 eV
  Heat capacity - const volume =        0.000298 eV/K
                               =       28.793551 J/(mol.K)
--------------------------------------------------------------------------------
  Phonon properties (per mole of unit cells): Temperature =    290.000 K
--------------------------------------------------------------------------------
  Zero point energy            =        1.736040 eV
  Entropy                      =        0.000115 eV/K
                               =       11.052208 J/(mol.K)
  Helmholtz free-energy        =      -57.221676 eV
                               =    -5521.016579 kJmol-1
  Free energy (equipartition)  =      -57.925975 eV
  - T*S       (equipartition)  =        0.423752 eV
  Uvib        (equipartition)  =        0.599767 eV
  Mean kinetic energy          =        0.880518 eV
  Heat capacity - const volume =        0.000325 eV/K
                               =       31.369016 J/(mol.K)
--------------------------------------------------------------------------------

  Time to end of properties =       1.2480 seconds


  Peak dynamic memory used =       0.67 MB 


  Timing analysis for GULP :

--------------------------------------------------------------------------------
  Task / Subroutine                                          Time (Seconds)
--------------------------------------------------------------------------------
  Calculation of real space energy and derivatives                0.0004
  Calculation of Brenner energy and derivatives                   1.2081
  Calculation of phonons                                          1.2363
  Disk read/write operations to scratch files                     0.0053
--------------------------------------------------------------------------------
  Total CPU time                                                  1.2480
--------------------------------------------------------------------------------


  Job Finished at 18:10.56 14th August     2020                               

