********************************************************************************
*                       GENERAL UTILITY LATTICE PROGRAM                        *
*                                 Julian Gale                                  *
*                       Curtin Institute for Computation                       *
*                    School of Molecular and Life Sciences                     *
*                    Curtin University, Western Australia                      *
********************************************************************************
* Version = 5.2.0 * Last modified =  17th December 2019                        *
********************************************************************************
*  single       - perform a single point run                                   *
*  property     - calculate properties for final geometry                      *
*  phonon       - calculate phonons for final geometry                         *
********************************************************************************
* ASE calculation                                                              *
********************************************************************************


  Job Started  at 09:35.21 31st July       2020                               

  Number of CPUs =     1


  Total number of configurations input =      1

********************************************************************************
*  Input for Configuration =   1                                               *
********************************************************************************

  Formula = C8                                                          

  Number of irreducible atoms/shells =       8


  Total number atoms/shells =       8

  Dimensionality = 3               :  Bulk   



  Cartesian lattice vectors (Angstroms) :

        3.552100    0.000000    0.000000
        0.000000    3.552100    0.000000
        0.000000    0.000000    3.552100

  Cell parameters (Angstroms/Degrees):

  a =       3.5521    alpha =  90.0000
  b =       3.5521    beta  =  90.0000
  c =       3.5521    gamma =  90.0000

  Initial cell volume =          44.818318 Angs**3

  Shrinking factors =      8     8     8

  Temperature of configuration =   10.0     K 

  Pressure of configuration =         0.000 GPa 

  Fractional coordinates of asymmetric unit :

--------------------------------------------------------------------------------
   No.  Atomic       x           y          z         Charge      Occupancy
        Label      (Frac)      (Frac)     (Frac)        (e)         (Frac)  
--------------------------------------------------------------------------------
      1 C     c    0.000000    0.000000    0.000000     0.00000    1.000000    
      2 C     c    0.000000    0.500000    0.500000     0.00000    1.000000    
      3 C     c    0.500000    0.500000    0.000000     0.00000    1.000000    
      4 C     c    0.500000    0.000000    0.500000     0.00000    1.000000    
      5 C     c    0.750000    0.250000    0.750000     0.00000    1.000000    
      6 C     c    0.250000    0.250000    0.250000     0.00000    1.000000    
      7 C     c    0.250000    0.750000    0.750000     0.00000    1.000000    
      8 C     c    0.750000    0.750000    0.250000     0.00000    1.000000    
--------------------------------------------------------------------------------


  Brillouin zone sampling points :

--------------------------------------------------------------------------------
  Point number          x          y          z            Weight
--------------------------------------------------------------------------------
        1           0.062500   0.062500   0.062500     0.00390625
        2           0.062500   0.062500   0.187500     0.00390625
        3           0.062500   0.062500   0.312500     0.00390625
        4           0.062500   0.062500   0.437500     0.00390625
        5           0.062500   0.062500   0.562500     0.00390625
        6           0.062500   0.062500   0.687500     0.00390625
        7           0.062500   0.062500   0.812500     0.00390625
        8           0.062500   0.062500   0.937500     0.00390625
        9           0.062500   0.187500   0.062500     0.00390625
       10           0.062500   0.187500   0.187500     0.00390625
       11           0.062500   0.187500   0.312500     0.00390625
       12           0.062500   0.187500   0.437500     0.00390625
       13           0.062500   0.187500   0.562500     0.00390625
       14           0.062500   0.187500   0.687500     0.00390625
       15           0.062500   0.187500   0.812500     0.00390625
       16           0.062500   0.187500   0.937500     0.00390625
       17           0.062500   0.312500   0.062500     0.00390625
       18           0.062500   0.312500   0.187500     0.00390625
       19           0.062500   0.312500   0.312500     0.00390625
       20           0.062500   0.312500   0.437500     0.00390625
       21           0.062500   0.312500   0.562500     0.00390625
       22           0.062500   0.312500   0.687500     0.00390625
       23           0.062500   0.312500   0.812500     0.00390625
       24           0.062500   0.312500   0.937500     0.00390625
       25           0.062500   0.437500   0.062500     0.00390625
       26           0.062500   0.437500   0.187500     0.00390625
       27           0.062500   0.437500   0.312500     0.00390625
       28           0.062500   0.437500   0.437500     0.00390625
       29           0.062500   0.437500   0.562500     0.00390625
       30           0.062500   0.437500   0.687500     0.00390625
       31           0.062500   0.437500   0.812500     0.00390625
       32           0.062500   0.437500   0.937500     0.00390625
       33           0.062500   0.562500   0.062500     0.00390625
       34           0.062500   0.562500   0.187500     0.00390625
       35           0.062500   0.562500   0.312500     0.00390625
       36           0.062500   0.562500   0.437500     0.00390625
       37           0.062500   0.562500   0.562500     0.00390625
       38           0.062500   0.562500   0.687500     0.00390625
       39           0.062500   0.562500   0.812500     0.00390625
       40           0.062500   0.562500   0.937500     0.00390625
       41           0.062500   0.687500   0.062500     0.00390625
       42           0.062500   0.687500   0.187500     0.00390625
       43           0.062500   0.687500   0.312500     0.00390625
       44           0.062500   0.687500   0.437500     0.00390625
       45           0.062500   0.687500   0.562500     0.00390625
       46           0.062500   0.687500   0.687500     0.00390625
       47           0.062500   0.687500   0.812500     0.00390625
       48           0.062500   0.687500   0.937500     0.00390625
       49           0.062500   0.812500   0.062500     0.00390625
       50           0.062500   0.812500   0.187500     0.00390625
       51           0.062500   0.812500   0.312500     0.00390625
       52           0.062500   0.812500   0.437500     0.00390625
       53           0.062500   0.812500   0.562500     0.00390625
       54           0.062500   0.812500   0.687500     0.00390625
       55           0.062500   0.812500   0.812500     0.00390625
       56           0.062500   0.812500   0.937500     0.00390625
       57           0.062500   0.937500   0.062500     0.00390625
       58           0.062500   0.937500   0.187500     0.00390625
       59           0.062500   0.937500   0.312500     0.00390625
       60           0.062500   0.937500   0.437500     0.00390625
       61           0.062500   0.937500   0.562500     0.00390625
       62           0.062500   0.937500   0.687500     0.00390625
       63           0.062500   0.937500   0.812500     0.00390625
       64           0.062500   0.937500   0.937500     0.00390625
       65           0.187500   0.062500   0.062500     0.00390625
       66           0.187500   0.062500   0.187500     0.00390625
       67           0.187500   0.062500   0.312500     0.00390625
       68           0.187500   0.062500   0.437500     0.00390625
       69           0.187500   0.062500   0.562500     0.00390625
       70           0.187500   0.062500   0.687500     0.00390625
       71           0.187500   0.062500   0.812500     0.00390625
       72           0.187500   0.062500   0.937500     0.00390625
       73           0.187500   0.187500   0.062500     0.00390625
       74           0.187500   0.187500   0.187500     0.00390625
       75           0.187500   0.187500   0.312500     0.00390625
       76           0.187500   0.187500   0.437500     0.00390625
       77           0.187500   0.187500   0.562500     0.00390625
       78           0.187500   0.187500   0.687500     0.00390625
       79           0.187500   0.187500   0.812500     0.00390625
       80           0.187500   0.187500   0.937500     0.00390625
       81           0.187500   0.312500   0.062500     0.00390625
       82           0.187500   0.312500   0.187500     0.00390625
       83           0.187500   0.312500   0.312500     0.00390625
       84           0.187500   0.312500   0.437500     0.00390625
       85           0.187500   0.312500   0.562500     0.00390625
       86           0.187500   0.312500   0.687500     0.00390625
       87           0.187500   0.312500   0.812500     0.00390625
       88           0.187500   0.312500   0.937500     0.00390625
       89           0.187500   0.437500   0.062500     0.00390625
       90           0.187500   0.437500   0.187500     0.00390625
       91           0.187500   0.437500   0.312500     0.00390625
       92           0.187500   0.437500   0.437500     0.00390625
       93           0.187500   0.437500   0.562500     0.00390625
       94           0.187500   0.437500   0.687500     0.00390625
       95           0.187500   0.437500   0.812500     0.00390625
       96           0.187500   0.437500   0.937500     0.00390625
       97           0.187500   0.562500   0.062500     0.00390625
       98           0.187500   0.562500   0.187500     0.00390625
       99           0.187500   0.562500   0.312500     0.00390625
      100           0.187500   0.562500   0.437500     0.00390625
      101           0.187500   0.562500   0.562500     0.00390625
      102           0.187500   0.562500   0.687500     0.00390625
      103           0.187500   0.562500   0.812500     0.00390625
      104           0.187500   0.562500   0.937500     0.00390625
      105           0.187500   0.687500   0.062500     0.00390625
      106           0.187500   0.687500   0.187500     0.00390625
      107           0.187500   0.687500   0.312500     0.00390625
      108           0.187500   0.687500   0.437500     0.00390625
      109           0.187500   0.687500   0.562500     0.00390625
      110           0.187500   0.687500   0.687500     0.00390625
      111           0.187500   0.687500   0.812500     0.00390625
      112           0.187500   0.687500   0.937500     0.00390625
      113           0.187500   0.812500   0.062500     0.00390625
      114           0.187500   0.812500   0.187500     0.00390625
      115           0.187500   0.812500   0.312500     0.00390625
      116           0.187500   0.812500   0.437500     0.00390625
      117           0.187500   0.812500   0.562500     0.00390625
      118           0.187500   0.812500   0.687500     0.00390625
      119           0.187500   0.812500   0.812500     0.00390625
      120           0.187500   0.812500   0.937500     0.00390625
      121           0.187500   0.937500   0.062500     0.00390625
      122           0.187500   0.937500   0.187500     0.00390625
      123           0.187500   0.937500   0.312500     0.00390625
      124           0.187500   0.937500   0.437500     0.00390625
      125           0.187500   0.937500   0.562500     0.00390625
      126           0.187500   0.937500   0.687500     0.00390625
      127           0.187500   0.937500   0.812500     0.00390625
      128           0.187500   0.937500   0.937500     0.00390625
      129           0.312500   0.062500   0.062500     0.00390625
      130           0.312500   0.062500   0.187500     0.00390625
      131           0.312500   0.062500   0.312500     0.00390625
      132           0.312500   0.062500   0.437500     0.00390625
      133           0.312500   0.062500   0.562500     0.00390625
      134           0.312500   0.062500   0.687500     0.00390625
      135           0.312500   0.062500   0.812500     0.00390625
      136           0.312500   0.062500   0.937500     0.00390625
      137           0.312500   0.187500   0.062500     0.00390625
      138           0.312500   0.187500   0.187500     0.00390625
      139           0.312500   0.187500   0.312500     0.00390625
      140           0.312500   0.187500   0.437500     0.00390625
      141           0.312500   0.187500   0.562500     0.00390625
      142           0.312500   0.187500   0.687500     0.00390625
      143           0.312500   0.187500   0.812500     0.00390625
      144           0.312500   0.187500   0.937500     0.00390625
      145           0.312500   0.312500   0.062500     0.00390625
      146           0.312500   0.312500   0.187500     0.00390625
      147           0.312500   0.312500   0.312500     0.00390625
      148           0.312500   0.312500   0.437500     0.00390625
      149           0.312500   0.312500   0.562500     0.00390625
      150           0.312500   0.312500   0.687500     0.00390625
      151           0.312500   0.312500   0.812500     0.00390625
      152           0.312500   0.312500   0.937500     0.00390625
      153           0.312500   0.437500   0.062500     0.00390625
      154           0.312500   0.437500   0.187500     0.00390625
      155           0.312500   0.437500   0.312500     0.00390625
      156           0.312500   0.437500   0.437500     0.00390625
      157           0.312500   0.437500   0.562500     0.00390625
      158           0.312500   0.437500   0.687500     0.00390625
      159           0.312500   0.437500   0.812500     0.00390625
      160           0.312500   0.437500   0.937500     0.00390625
      161           0.312500   0.562500   0.062500     0.00390625
      162           0.312500   0.562500   0.187500     0.00390625
      163           0.312500   0.562500   0.312500     0.00390625
      164           0.312500   0.562500   0.437500     0.00390625
      165           0.312500   0.562500   0.562500     0.00390625
      166           0.312500   0.562500   0.687500     0.00390625
      167           0.312500   0.562500   0.812500     0.00390625
      168           0.312500   0.562500   0.937500     0.00390625
      169           0.312500   0.687500   0.062500     0.00390625
      170           0.312500   0.687500   0.187500     0.00390625
      171           0.312500   0.687500   0.312500     0.00390625
      172           0.312500   0.687500   0.437500     0.00390625
      173           0.312500   0.687500   0.562500     0.00390625
      174           0.312500   0.687500   0.687500     0.00390625
      175           0.312500   0.687500   0.812500     0.00390625
      176           0.312500   0.687500   0.937500     0.00390625
      177           0.312500   0.812500   0.062500     0.00390625
      178           0.312500   0.812500   0.187500     0.00390625
      179           0.312500   0.812500   0.312500     0.00390625
      180           0.312500   0.812500   0.437500     0.00390625
      181           0.312500   0.812500   0.562500     0.00390625
      182           0.312500   0.812500   0.687500     0.00390625
      183           0.312500   0.812500   0.812500     0.00390625
      184           0.312500   0.812500   0.937500     0.00390625
      185           0.312500   0.937500   0.062500     0.00390625
      186           0.312500   0.937500   0.187500     0.00390625
      187           0.312500   0.937500   0.312500     0.00390625
      188           0.312500   0.937500   0.437500     0.00390625
      189           0.312500   0.937500   0.562500     0.00390625
      190           0.312500   0.937500   0.687500     0.00390625
      191           0.312500   0.937500   0.812500     0.00390625
      192           0.312500   0.937500   0.937500     0.00390625
      193           0.437500   0.062500   0.062500     0.00390625
      194           0.437500   0.062500   0.187500     0.00390625
      195           0.437500   0.062500   0.312500     0.00390625
      196           0.437500   0.062500   0.437500     0.00390625
      197           0.437500   0.062500   0.562500     0.00390625
      198           0.437500   0.062500   0.687500     0.00390625
      199           0.437500   0.062500   0.812500     0.00390625
      200           0.437500   0.062500   0.937500     0.00390625
      201           0.437500   0.187500   0.062500     0.00390625
      202           0.437500   0.187500   0.187500     0.00390625
      203           0.437500   0.187500   0.312500     0.00390625
      204           0.437500   0.187500   0.437500     0.00390625
      205           0.437500   0.187500   0.562500     0.00390625
      206           0.437500   0.187500   0.687500     0.00390625
      207           0.437500   0.187500   0.812500     0.00390625
      208           0.437500   0.187500   0.937500     0.00390625
      209           0.437500   0.312500   0.062500     0.00390625
      210           0.437500   0.312500   0.187500     0.00390625
      211           0.437500   0.312500   0.312500     0.00390625
      212           0.437500   0.312500   0.437500     0.00390625
      213           0.437500   0.312500   0.562500     0.00390625
      214           0.437500   0.312500   0.687500     0.00390625
      215           0.437500   0.312500   0.812500     0.00390625
      216           0.437500   0.312500   0.937500     0.00390625
      217           0.437500   0.437500   0.062500     0.00390625
      218           0.437500   0.437500   0.187500     0.00390625
      219           0.437500   0.437500   0.312500     0.00390625
      220           0.437500   0.437500   0.437500     0.00390625
      221           0.437500   0.437500   0.562500     0.00390625
      222           0.437500   0.437500   0.687500     0.00390625
      223           0.437500   0.437500   0.812500     0.00390625
      224           0.437500   0.437500   0.937500     0.00390625
      225           0.437500   0.562500   0.062500     0.00390625
      226           0.437500   0.562500   0.187500     0.00390625
      227           0.437500   0.562500   0.312500     0.00390625
      228           0.437500   0.562500   0.437500     0.00390625
      229           0.437500   0.562500   0.562500     0.00390625
      230           0.437500   0.562500   0.687500     0.00390625
      231           0.437500   0.562500   0.812500     0.00390625
      232           0.437500   0.562500   0.937500     0.00390625
      233           0.437500   0.687500   0.062500     0.00390625
      234           0.437500   0.687500   0.187500     0.00390625
      235           0.437500   0.687500   0.312500     0.00390625
      236           0.437500   0.687500   0.437500     0.00390625
      237           0.437500   0.687500   0.562500     0.00390625
      238           0.437500   0.687500   0.687500     0.00390625
      239           0.437500   0.687500   0.812500     0.00390625
      240           0.437500   0.687500   0.937500     0.00390625
      241           0.437500   0.812500   0.062500     0.00390625
      242           0.437500   0.812500   0.187500     0.00390625
      243           0.437500   0.812500   0.312500     0.00390625
      244           0.437500   0.812500   0.437500     0.00390625
      245           0.437500   0.812500   0.562500     0.00390625
      246           0.437500   0.812500   0.687500     0.00390625
      247           0.437500   0.812500   0.812500     0.00390625
      248           0.437500   0.812500   0.937500     0.00390625
      249           0.437500   0.937500   0.062500     0.00390625
      250           0.437500   0.937500   0.187500     0.00390625
      251           0.437500   0.937500   0.312500     0.00390625
      252           0.437500   0.937500   0.437500     0.00390625
      253           0.437500   0.937500   0.562500     0.00390625
      254           0.437500   0.937500   0.687500     0.00390625
      255           0.437500   0.937500   0.812500     0.00390625
      256           0.437500   0.937500   0.937500     0.00390625
--------------------------------------------------------------------------------


********************************************************************************
*  General input information                                                   *
********************************************************************************

  Species output for all configurations : 

--------------------------------------------------------------------------------
  Species    Type    Atomic    Atomic    Charge       Radii (Angs)     Library
                     Number     Mass       (e)     Cova   Ionic  VDW   Symbol
--------------------------------------------------------------------------------
    C        Core        6      12.01   0.000000   0.770  0.000  1.530          
--------------------------------------------------------------------------------


  Lattice summation method               =    Ewald          (3-D)
                                         =    Parry          (2-D)
                                         =    Saunders et al (1-D)
  Accuracy factor for lattice sums       =   12.000


  Analytic derivatives to be used

  Time limit = Infinity

  Maximum range for interatomic potentials =    100000.000000 Angstroms

  Brenner et al 2002 potential to be used with explicit splines for P


********************************************************************************
*  Output for configuration   1                                                *
********************************************************************************


  Components of energy : 

--------------------------------------------------------------------------------
  Interatomic potentials     =           0.00000000 eV    
  Brenner potentials         =         -58.94954283 eV    
  Monopole - monopole (real) =           0.00000000 eV    
  Monopole - monopole (recip)=           0.00000000 eV    
  Monopole - monopole (total)=           0.00000000 eV    
--------------------------------------------------------------------------------
  Total lattice energy       =         -58.94954283 eV    
--------------------------------------------------------------------------------
  Total lattice energy       =           -5687.7298 kJ/(mole unit cells)
--------------------------------------------------------------------------------


  Elastic Constant Matrix: (Units=GPa)

-------------------------------------------------------------------------------
  Indices      1         2         3         4         5         6    
-------------------------------------------------------------------------------
       1   1108.0651  137.8621  137.8621    0.0000    0.0000    0.0000
       2    137.8621 1108.0651  137.8621    0.0000    0.0000    0.0000
       3    137.8621  137.8621 1108.0651    0.0000    0.0000    0.0000
       4      0.0000    0.0000    0.0000  744.5390   -0.0000   -0.0000
       5      0.0000    0.0000    0.0000   -0.0000  744.5390   -0.0000
       6      0.0000    0.0000    0.0000   -0.0000   -0.0000  744.5390
-------------------------------------------------------------------------------


  Elastic Compliance Matrix: (Units=1/GPa)

-------------------------------------------------------------------------------
  Indices      1         2         3         4         5         6    
-------------------------------------------------------------------------------
       1    0.000928 -0.000103 -0.000103 -0.000000 -0.000000 -0.000000
       2   -0.000103  0.000928 -0.000103 -0.000000 -0.000000 -0.000000
       3   -0.000103 -0.000103  0.000928 -0.000000 -0.000000 -0.000000
       4   -0.000000 -0.000000 -0.000000  0.001343  0.000000  0.000000
       5   -0.000000 -0.000000 -0.000000  0.000000  0.001343  0.000000
       6   -0.000000 -0.000000 -0.000000  0.000000  0.000000  0.001343
-------------------------------------------------------------------------------

  Mechanical properties :

-------------------------------------------------------------------------------
  Convention :                    Reuss         Voigt         Hill
-------------------------------------------------------------------------------
  Bulk  Modulus (GPa)     =     461.26309     461.26309     461.26309
  Shear Modulus (GPa)     =     613.33230     640.76398     627.04814
-------------------------------------------------------------------------------
  Velocity S-wave (km/s)  =      13.12596      13.41629      13.27192
  Velocity P-wave (km/s)  =      18.95506      19.22417      19.09009
-------------------------------------------------------------------------------
  Compressibility (1/GPa) =    0.00216796
-------------------------------------------------------------------------------
  Stress axis :                     x             y             z
-------------------------------------------------------------------------------
  Youngs Moduli (GPa)     =    1077.55613    1077.55613    1077.55613
-------------------------------------------------------------------------------
  Poissons Ratio (x)      =                     0.11065       0.11065
  Poissons Ratio (y)      =       0.11065                     0.11065
  Poissons Ratio (z)      =       0.11065       0.11065
-------------------------------------------------------------------------------


  Piezoelectric Strain Matrix: (Units=C/m**2)

-------------------------------------------------------------------------------
  Indices      1         2         3         4         5         6    
-------------------------------------------------------------------------------
       x    -0.00000  -0.00000  -0.00000  -0.00000  -0.00000  -0.00000
       y    -0.00000  -0.00000  -0.00000  -0.00000  -0.00000  -0.00000
       z    -0.00000  -0.00000  -0.00000  -0.00000  -0.00000  -0.00000
-------------------------------------------------------------------------------


  Piezoelectric Stress Matrix: (Units=10**-11 C/N)

-------------------------------------------------------------------------------
  Indices      1         2         3         4         5         6    
-------------------------------------------------------------------------------
       x     0.00000   0.00000   0.00000   0.00000   0.00000   0.00000
       y     0.00000   0.00000   0.00000   0.00000   0.00000   0.00000
       z     0.00000   0.00000   0.00000   0.00000   0.00000   0.00000
-------------------------------------------------------------------------------


  Static dielectric constant tensor : 

-------------------------------------------------------------------------------
              x         y         z
-------------------------------------------------------------------------------
       x     1.00000   0.00000   0.00000
       y     0.00000   1.00000   0.00000
       z     0.00000   0.00000   1.00000
--------------------------------------------------------------------------------

  Static refractive indices : 

-------------------------------------------------------------------------------
    1 =    1.00000      2 =    1.00000      3 =    1.00000
-------------------------------------------------------------------------------


  Phonon Calculation : 

  Number of k points for this configuration =      256

--------------------------------------------------------------------------------
  K point      1 =   0.062500  0.062500  0.062500  Weight =    0.004
--------------------------------------------------------------------------------

  Frequencies (cm-1) [NB: Negative implies an imaginary mode]:

  128.38  128.38  204.96 1065.84 1065.84 1065.84 1079.48 1079.48 1079.48
 1241.94 1241.94 1241.94 1294.05 1294.05 1294.05 1313.71 1313.71 1313.71
 1378.15 1378.15 1378.15 1597.16 1597.16 1601.35


--------------------------------------------------------------------------------
  K point      2 =   0.062500  0.062500  0.187500  Weight =    0.004
--------------------------------------------------------------------------------

  Frequencies (cm-1) [NB: Negative implies an imaginary mode]:

  252.08  269.55  367.05  980.33  990.05 1058.59 1058.59 1097.15 1097.15
 1152.10 1193.87 1193.87 1272.98 1272.98 1347.74 1347.74 1353.16 1359.51
 1398.88 1398.88 1445.27 1584.89 1585.33 1597.44


--------------------------------------------------------------------------------
  K point      3 =   0.062500  0.062500  0.312500  Weight =    0.004
--------------------------------------------------------------------------------

  Frequencies (cm-1) [NB: Negative implies an imaginary mode]:

  414.08  426.12  543.63  861.76  867.63 1025.09 1060.04 1060.04 1115.63
 1115.63 1148.27 1148.27 1242.32 1242.32 1379.33 1379.33 1417.98 1417.98
 1419.59 1424.05 1500.02 1561.58 1561.81 1587.06


--------------------------------------------------------------------------------
  K point      4 =   0.062500  0.062500  0.437500  Weight =    0.004
--------------------------------------------------------------------------------

  Frequencies (cm-1) [NB: Negative implies an imaginary mode]:

  575.22  580.15  716.40  726.59  727.72  878.40 1070.38 1070.38 1108.95
 1108.95 1135.44 1135.44 1219.83 1219.83 1396.69 1396.69 1428.28 1428.28
 1478.26 1481.20 1525.86 1527.31 1540.60 1568.83


--------------------------------------------------------------------------------
  K point      5 =   0.062500  0.062500  0.562500  Weight =    0.004
--------------------------------------------------------------------------------

  Frequencies (cm-1) [NB: Negative implies an imaginary mode]:

  575.22  580.15  716.40  726.59  727.72  878.40 1070.38 1070.38 1108.95
 1108.95 1135.44 1135.44 1219.83 1219.83 1396.69 1396.69 1428.28 1428.28
 1478.26 1481.20 1525.86 1527.31 1540.60 1568.83


--------------------------------------------------------------------------------
  K point      6 =   0.062500  0.062500  0.687500  Weight =    0.004
--------------------------------------------------------------------------------

  Frequencies (cm-1) [NB: Negative implies an imaginary mode]:

  414.08  426.12  543.63  861.76  867.63 1025.09 1060.04 1060.04 1115.63
 1115.63 1148.27 1148.27 1242.32 1242.32 1379.33 1379.33 1417.98 1417.98
 1419.59 1424.05 1500.02 1561.58 1561.81 1587.06


--------------------------------------------------------------------------------
  K point      7 =   0.062500  0.062500  0.812500  Weight =    0.004
--------------------------------------------------------------------------------

  Frequencies (cm-1) [NB: Negative implies an imaginary mode]:

  252.08  269.55  367.05  980.33  990.05 1058.59 1058.59 1097.15 1097.15
 1152.10 1193.87 1193.87 1272.98 1272.98 1347.74 1347.74 1353.16 1359.51
 1398.88 1398.88 1445.27 1584.89 1585.33 1597.44


--------------------------------------------------------------------------------
  K point      8 =   0.062500  0.062500  0.937500  Weight =    0.004
--------------------------------------------------------------------------------

  Frequencies (cm-1) [NB: Negative implies an imaginary mode]:

  128.38  128.38  204.96 1065.84 1065.84 1065.84 1079.48 1079.48 1079.48
 1241.94 1241.94 1241.94 1294.05 1294.05 1294.05 1313.71 1313.71 1313.71
 1378.15 1378.15 1378.15 1597.16 1597.16 1601.35


--------------------------------------------------------------------------------
  K point      9 =   0.062500  0.187500  0.062500  Weight =    0.004
--------------------------------------------------------------------------------

  Frequencies (cm-1) [NB: Negative implies an imaginary mode]:

  252.08  269.55  367.05  980.33  990.05 1058.59 1058.59 1097.15 1097.15
 1152.10 1193.87 1193.87 1272.98 1272.98 1347.74 1347.74 1353.16 1359.51
 1398.88 1398.88 1445.27 1584.89 1585.33 1597.44


--------------------------------------------------------------------------------
  K point     10 =   0.062500  0.187500  0.187500  Weight =    0.004
--------------------------------------------------------------------------------

  Frequencies (cm-1) [NB: Negative implies an imaginary mode]:

  299.82  355.35  490.78  977.73  977.73 1006.90 1006.90 1021.90 1125.53
 1128.49 1128.49 1163.71 1305.89 1311.46 1344.71 1344.71 1383.66 1383.66
 1429.93 1441.79 1441.79 1571.04 1574.59 1594.36


--------------------------------------------------------------------------------
  K point     11 =   0.062500  0.187500  0.312500  Weight =    0.004
--------------------------------------------------------------------------------

  Frequencies (cm-1) [NB: Negative implies an imaginary mode]:

  419.34  484.74  635.66  857.20  889.76  978.33  994.31 1029.15 1031.19
 1107.93 1112.19 1152.86 1281.70 1327.35 1349.12 1411.18 1412.32 1435.64
 1436.22 1450.07 1488.99 1547.41 1553.74 1582.80


--------------------------------------------------------------------------------
  K point     12 =   0.062500  0.187500  0.437500  Weight =    0.004
--------------------------------------------------------------------------------

  Frequencies (cm-1) [NB: Negative implies an imaginary mode]:

  566.35  623.82  716.34  760.73  779.19  912.79  977.64  980.13 1053.62
 1081.11 1111.57 1134.85 1285.43 1305.53 1383.13 1407.90 1446.15 1455.32
 1468.92 1483.75 1513.80 1523.29 1529.78 1561.34


--------------------------------------------------------------------------------
  K point     13 =   0.062500  0.187500  0.562500  Weight =    0.004
--------------------------------------------------------------------------------

  Frequencies (cm-1) [NB: Negative implies an imaginary mode]:

  566.35  623.82  716.34  760.73  779.19  912.79  977.64  980.13 1053.62
 1081.11 1111.57 1134.85 1285.43 1305.53 1383.13 1407.90 1446.15 1455.32
 1468.92 1483.75 1513.80 1523.29 1529.78 1561.34


--------------------------------------------------------------------------------
  K point     14 =   0.062500  0.187500  0.687500  Weight =    0.004
--------------------------------------------------------------------------------

  Frequencies (cm-1) [NB: Negative implies an imaginary mode]:

  419.34  484.74  635.66  857.20  889.76  978.33  994.31 1029.15 1031.19
 1107.93 1112.19 1152.86 1281.70 1327.35 1349.12 1411.18 1412.32 1435.64
 1436.22 1450.07 1488.99 1547.41 1553.74 1582.80


--------------------------------------------------------------------------------
  K point     15 =   0.062500  0.187500  0.812500  Weight =    0.004
--------------------------------------------------------------------------------

  Frequencies (cm-1) [NB: Negative implies an imaginary mode]:

  299.82  355.35  490.78  977.73  977.73 1006.90 1006.90 1021.90 1125.53
 1128.49 1128.49 1163.71 1305.89 1311.46 1344.71 1344.71 1383.66 1383.66
 1429.93 1441.79 1441.79 1571.04 1574.59 1594.36


--------------------------------------------------------------------------------
  K point     16 =   0.062500  0.187500  0.937500  Weight =    0.004
--------------------------------------------------------------------------------

  Frequencies (cm-1) [NB: Negative implies an imaginary mode]:

  252.08  269.55  367.05  980.33  990.05 1058.59 1058.59 1097.15 1097.15
 1152.10 1193.87 1193.87 1272.98 1272.98 1347.74 1347.74 1353.16 1359.51
 1398.88 1398.88 1445.27 1584.89 1585.33 1597.44


--------------------------------------------------------------------------------
  K point     17 =   0.062500  0.312500  0.062500  Weight =    0.004
--------------------------------------------------------------------------------

  Frequencies (cm-1) [NB: Negative implies an imaginary mode]:

  414.08  426.12  543.63  861.76  867.63 1025.09 1060.04 1060.04 1115.63
 1115.63 1148.27 1148.27 1242.32 1242.32 1379.33 1379.33 1417.98 1417.98
 1419.59 1424.05 1500.02 1561.58 1561.81 1587.06


--------------------------------------------------------------------------------
  K point     18 =   0.062500  0.312500  0.187500  Weight =    0.004
--------------------------------------------------------------------------------

  Frequencies (cm-1) [NB: Negative implies an imaginary mode]:

  419.34  484.74  635.66  857.20  889.76  978.33  994.31 1029.15 1031.19
 1107.93 1112.19 1152.86 1281.70 1327.35 1349.12 1411.18 1412.32 1435.64
 1436.22 1450.07 1488.99 1547.41 1553.74 1582.80


--------------------------------------------------------------------------------
  K point     19 =   0.062500  0.312500  0.312500  Weight =    0.004
--------------------------------------------------------------------------------

  Frequencies (cm-1) [NB: Negative implies an imaginary mode]:

  480.99  585.39  748.06  853.85  853.85  931.07  931.07  934.05 1044.85
 1044.85 1076.73 1139.07 1330.17 1348.39 1397.81 1397.81 1453.07 1453.07
 1467.10 1467.10 1469.96 1523.64 1538.05 1569.24


--------------------------------------------------------------------------------
  K point     20 =   0.062500  0.312500  0.437500  Weight =    0.004
--------------------------------------------------------------------------------

  Frequencies (cm-1) [NB: Negative implies an imaginary mode]:

  589.16  702.08  719.27  820.28  859.29  861.95  888.36  960.15  982.89
 1033.93 1068.01 1102.11 1355.51 1377.89 1390.36 1433.30 1451.43 1469.22
 1475.91 1487.12 1492.08 1507.73 1515.36 1544.02


--------------------------------------------------------------------------------
  K point     21 =   0.062500  0.312500  0.562500  Weight =    0.004
--------------------------------------------------------------------------------

  Frequencies (cm-1) [NB: Negative implies an imaginary mode]:

  589.16  702.08  719.27  820.28  859.29  861.95  888.36  960.15  982.89
 1033.93 1068.01 1102.11 1355.51 1377.89 1390.36 1433.30 1451.43 1469.22
 1475.91 1487.12 1492.08 1507.73 1515.36 1544.02


--------------------------------------------------------------------------------
  K point     22 =   0.062500  0.312500  0.687500  Weight =    0.004
--------------------------------------------------------------------------------

  Frequencies (cm-1) [NB: Negative implies an imaginary mode]:

  480.99  585.39  748.06  853.85  853.85  931.07  931.07  934.05 1044.85
 1044.85 1076.73 1139.07 1330.17 1348.39 1397.81 1397.81 1453.07 1453.07
 1467.10 1467.10 1469.96 1523.64 1538.05 1569.24


--------------------------------------------------------------------------------
  K point     23 =   0.062500  0.312500  0.812500  Weight =    0.004
--------------------------------------------------------------------------------

  Frequencies (cm-1) [NB: Negative implies an imaginary mode]:

  419.34  484.74  635.66  857.20  889.76  978.33  994.31 1029.15 1031.19
 1107.93 1112.19 1152.86 1281.70 1327.35 1349.12 1411.18 1412.32 1435.64
 1436.22 1450.07 1488.99 1547.41 1553.74 1582.80


--------------------------------------------------------------------------------
  K point     24 =   0.062500  0.312500  0.937500  Weight =    0.004
--------------------------------------------------------------------------------

  Frequencies (cm-1) [NB: Negative implies an imaginary mode]:

  414.08  426.12  543.63  861.76  867.63 1025.09 1060.04 1060.04 1115.63
 1115.63 1148.27 1148.27 1242.32 1242.32 1379.33 1379.33 1417.98 1417.98
 1419.59 1424.05 1500.02 1561.58 1561.81 1587.06


--------------------------------------------------------------------------------
  K point     25 =   0.062500  0.437500  0.062500  Weight =    0.004
--------------------------------------------------------------------------------

  Frequencies (cm-1) [NB: Negative implies an imaginary mode]:

  575.22  580.15  716.40  726.59  727.72  878.40 1070.38 1070.38 1108.95
 1108.95 1135.44 1135.44 1219.83 1219.83 1396.69 1396.69 1428.28 1428.28
 1478.26 1481.20 1525.86 1527.31 1540.60 1568.83


--------------------------------------------------------------------------------
  K point     26 =   0.062500  0.437500  0.187500  Weight =    0.004
--------------------------------------------------------------------------------

  Frequencies (cm-1) [NB: Negative implies an imaginary mode]:

  566.35  623.82  716.34  760.73  779.19  912.79  977.64  980.13 1053.62
 1081.11 1111.57 1134.85 1285.43 1305.53 1383.13 1407.90 1446.15 1455.32
 1468.92 1483.75 1513.80 1523.29 1529.78 1561.34


--------------------------------------------------------------------------------
  K point     27 =   0.062500  0.437500  0.312500  Weight =    0.004
--------------------------------------------------------------------------------

  Frequencies (cm-1) [NB: Negative implies an imaginary mode]:

  589.16  702.08  719.27  820.28  859.29  861.95  888.36  960.15  982.89
 1033.93 1068.01 1102.11 1355.51 1377.89 1390.36 1433.30 1451.43 1469.22
 1475.91 1487.12 1492.08 1507.73 1515.36 1544.02


--------------------------------------------------------------------------------
  K point     28 =   0.062500  0.437500  0.437500  Weight =    0.004
--------------------------------------------------------------------------------

  Frequencies (cm-1) [NB: Negative implies an imaginary mode]:

  653.72  749.52  749.52  796.85  808.12  894.15  894.15  938.44  969.41
 1009.27 1009.27 1057.15 1401.77 1425.13 1428.33 1428.33 1463.66 1470.83
 1470.83 1487.31 1491.09 1491.09 1501.52 1516.47


--------------------------------------------------------------------------------
  K point     29 =   0.062500  0.437500  0.562500  Weight =    0.004
--------------------------------------------------------------------------------

  Frequencies (cm-1) [NB: Negative implies an imaginary mode]:

  653.72  749.52  749.52  796.85  808.12  894.15  894.15  938.44  969.41
 1009.27 1009.27 1057.15 1401.77 1425.13 1428.33 1428.33 1463.66 1470.83
 1470.83 1487.31 1491.09 1491.09 1501.52 1516.47


--------------------------------------------------------------------------------
  K point     30 =   0.062500  0.437500  0.687500  Weight =    0.004
--------------------------------------------------------------------------------

  Frequencies (cm-1) [NB: Negative implies an imaginary mode]:

  589.16  702.08  719.27  820.28  859.29  861.95  888.36  960.15  982.89
 1033.93 1068.01 1102.11 1355.51 1377.89 1390.36 1433.30 1451.43 1469.22
 1475.91 1487.12 1492.08 1507.73 1515.36 1544.02


--------------------------------------------------------------------------------
  K point     31 =   0.062500  0.437500  0.812500  Weight =    0.004
--------------------------------------------------------------------------------

  Frequencies (cm-1) [NB: Negative implies an imaginary mode]:

  566.35  623.82  716.34  760.73  779.19  912.79  977.64  980.13 1053.62
 1081.11 1111.57 1134.85 1285.43 1305.53 1383.13 1407.90 1446.15 1455.32
 1468.92 1483.75 1513.80 1523.29 1529.78 1561.34


--------------------------------------------------------------------------------
  K point     32 =   0.062500  0.437500  0.937500  Weight =    0.004
--------------------------------------------------------------------------------

  Frequencies (cm-1) [NB: Negative implies an imaginary mode]:

  575.22  580.15  716.40  726.59  727.72  878.40 1070.38 1070.38 1108.95
 1108.95 1135.44 1135.44 1219.83 1219.83 1396.69 1396.69 1428.28 1428.28
 1478.26 1481.20 1525.86 1527.31 1540.60 1568.83


--------------------------------------------------------------------------------
  K point     33 =   0.062500  0.562500  0.062500  Weight =    0.004
--------------------------------------------------------------------------------

  Frequencies (cm-1) [NB: Negative implies an imaginary mode]:

  575.22  580.15  716.40  726.59  727.72  878.40 1070.38 1070.38 1108.95
 1108.95 1135.44 1135.44 1219.83 1219.83 1396.69 1396.69 1428.28 1428.28
 1478.26 1481.20 1525.86 1527.31 1540.60 1568.83


--------------------------------------------------------------------------------
  K point     34 =   0.062500  0.562500  0.187500  Weight =    0.004
--------------------------------------------------------------------------------

  Frequencies (cm-1) [NB: Negative implies an imaginary mode]:

  566.35  623.82  716.34  760.73  779.19  912.79  977.64  980.13 1053.62
 1081.11 1111.57 1134.85 1285.43 1305.53 1383.13 1407.90 1446.15 1455.32
 1468.92 1483.75 1513.80 1523.29 1529.78 1561.34


--------------------------------------------------------------------------------
  K point     35 =   0.062500  0.562500  0.312500  Weight =    0.004
--------------------------------------------------------------------------------

  Frequencies (cm-1) [NB: Negative implies an imaginary mode]:

  589.16  702.08  719.27  820.28  859.29  861.95  888.36  960.15  982.89
 1033.93 1068.01 1102.11 1355.51 1377.89 1390.36 1433.30 1451.43 1469.22
 1475.91 1487.12 1492.08 1507.73 1515.36 1544.02


--------------------------------------------------------------------------------
  K point     36 =   0.062500  0.562500  0.437500  Weight =    0.004
--------------------------------------------------------------------------------

  Frequencies (cm-1) [NB: Negative implies an imaginary mode]:

  653.72  749.52  749.52  796.85  808.12  894.15  894.15  938.44  969.41
 1009.27 1009.27 1057.15 1401.77 1425.13 1428.33 1428.33 1463.66 1470.83
 1470.83 1487.31 1491.09 1491.09 1501.52 1516.47


--------------------------------------------------------------------------------
  K point     37 =   0.062500  0.562500  0.562500  Weight =    0.004
--------------------------------------------------------------------------------

  Frequencies (cm-1) [NB: Negative implies an imaginary mode]:

  653.72  749.52  749.52  796.85  808.12  894.15  894.15  938.44  969.41
 1009.27 1009.27 1057.15 1401.77 1425.13 1428.33 1428.33 1463.66 1470.83
 1470.83 1487.31 1491.09 1491.09 1501.52 1516.47


--------------------------------------------------------------------------------
  K point     38 =   0.062500  0.562500  0.687500  Weight =    0.004
--------------------------------------------------------------------------------

  Frequencies (cm-1) [NB: Negative implies an imaginary mode]:

  589.16  702.08  719.27  820.28  859.29  861.95  888.36  960.15  982.89
 1033.93 1068.01 1102.11 1355.51 1377.89 1390.36 1433.30 1451.43 1469.22
 1475.91 1487.12 1492.08 1507.73 1515.36 1544.02


--------------------------------------------------------------------------------
  K point     39 =   0.062500  0.562500  0.812500  Weight =    0.004
--------------------------------------------------------------------------------

  Frequencies (cm-1) [NB: Negative implies an imaginary mode]:

  566.35  623.82  716.34  760.73  779.19  912.79  977.64  980.13 1053.62
 1081.11 1111.57 1134.85 1285.43 1305.53 1383.13 1407.90 1446.15 1455.32
 1468.92 1483.75 1513.80 1523.29 1529.78 1561.34


--------------------------------------------------------------------------------
  K point     40 =   0.062500  0.562500  0.937500  Weight =    0.004
--------------------------------------------------------------------------------

  Frequencies (cm-1) [NB: Negative implies an imaginary mode]:

  575.22  580.15  716.40  726.59  727.72  878.40 1070.38 1070.38 1108.95
 1108.95 1135.44 1135.44 1219.83 1219.83 1396.69 1396.69 1428.28 1428.28
 1478.26 1481.20 1525.86 1527.31 1540.60 1568.83


--------------------------------------------------------------------------------
  K point     41 =   0.062500  0.687500  0.062500  Weight =    0.004
--------------------------------------------------------------------------------

  Frequencies (cm-1) [NB: Negative implies an imaginary mode]:

  414.08  426.12  543.63  861.76  867.63 1025.09 1060.04 1060.04 1115.63
 1115.63 1148.27 1148.27 1242.32 1242.32 1379.33 1379.33 1417.98 1417.98
 1419.59 1424.05 1500.02 1561.58 1561.81 1587.06


--------------------------------------------------------------------------------
  K point     42 =   0.062500  0.687500  0.187500  Weight =    0.004
--------------------------------------------------------------------------------

  Frequencies (cm-1) [NB: Negative implies an imaginary mode]:

  419.34  484.74  635.66  857.20  889.76  978.33  994.31 1029.15 1031.19
 1107.93 1112.19 1152.86 1281.70 1327.35 1349.12 1411.18 1412.32 1435.64
 1436.22 1450.07 1488.99 1547.41 1553.74 1582.80


--------------------------------------------------------------------------------
  K point     43 =   0.062500  0.687500  0.312500  Weight =    0.004
--------------------------------------------------------------------------------

  Frequencies (cm-1) [NB: Negative implies an imaginary mode]:

  480.99  585.39  748.06  853.85  853.85  931.07  931.07  934.05 1044.85
 1044.85 1076.73 1139.07 1330.17 1348.39 1397.81 1397.81 1453.07 1453.07
 1467.10 1467.10 1469.96 1523.64 1538.05 1569.24


--------------------------------------------------------------------------------
  K point     44 =   0.062500  0.687500  0.437500  Weight =    0.004
--------------------------------------------------------------------------------

  Frequencies (cm-1) [NB: Negative implies an imaginary mode]:

  589.16  702.08  719.27  820.28  859.29  861.95  888.36  960.15  982.89
 1033.93 1068.01 1102.11 1355.51 1377.89 1390.36 1433.30 1451.43 1469.22
 1475.91 1487.12 1492.08 1507.73 1515.36 1544.02


--------------------------------------------------------------------------------
  K point     45 =   0.062500  0.687500  0.562500  Weight =    0.004
--------------------------------------------------------------------------------

  Frequencies (cm-1) [NB: Negative implies an imaginary mode]:

  589.16  702.08  719.27  820.28  859.29  861.95  888.36  960.15  982.89
 1033.93 1068.01 1102.11 1355.51 1377.89 1390.36 1433.30 1451.43 1469.22
 1475.91 1487.12 1492.08 1507.73 1515.36 1544.02


--------------------------------------------------------------------------------
  K point     46 =   0.062500  0.687500  0.687500  Weight =    0.004
--------------------------------------------------------------------------------

  Frequencies (cm-1) [NB: Negative implies an imaginary mode]:

  480.99  585.39  748.06  853.85  853.85  931.07  931.07  934.05 1044.85
 1044.85 1076.73 1139.07 1330.17 1348.39 1397.81 1397.81 1453.07 1453.07
 1467.10 1467.10 1469.96 1523.64 1538.05 1569.24


--------------------------------------------------------------------------------
  K point     47 =   0.062500  0.687500  0.812500  Weight =    0.004
--------------------------------------------------------------------------------

  Frequencies (cm-1) [NB: Negative implies an imaginary mode]:

  419.34  484.74  635.66  857.20  889.76  978.33  994.31 1029.15 1031.19
 1107.93 1112.19 1152.86 1281.70 1327.35 1349.12 1411.18 1412.32 1435.64
 1436.22 1450.07 1488.99 1547.41 1553.74 1582.80


--------------------------------------------------------------------------------
  K point     48 =   0.062500  0.687500  0.937500  Weight =    0.004
--------------------------------------------------------------------------------

  Frequencies (cm-1) [NB: Negative implies an imaginary mode]:

  414.08  426.12  543.63  861.76  867.63 1025.09 1060.04 1060.04 1115.63
 1115.63 1148.27 1148.27 1242.32 1242.32 1379.33 1379.33 1417.98 1417.98
 1419.59 1424.05 1500.02 1561.58 1561.81 1587.06


--------------------------------------------------------------------------------
  K point     49 =   0.062500  0.812500  0.062500  Weight =    0.004
--------------------------------------------------------------------------------

  Frequencies (cm-1) [NB: Negative implies an imaginary mode]:

  252.08  269.55  367.05  980.33  990.05 1058.59 1058.59 1097.15 1097.15
 1152.10 1193.87 1193.87 1272.98 1272.98 1347.74 1347.74 1353.16 1359.51
 1398.88 1398.88 1445.27 1584.89 1585.33 1597.44


--------------------------------------------------------------------------------
  K point     50 =   0.062500  0.812500  0.187500  Weight =    0.004
--------------------------------------------------------------------------------

  Frequencies (cm-1) [NB: Negative implies an imaginary mode]:

  299.82  355.35  490.78  977.73  977.73 1006.90 1006.90 1021.90 1125.53
 1128.49 1128.49 1163.71 1305.89 1311.46 1344.71 1344.71 1383.66 1383.66
 1429.93 1441.79 1441.79 1571.04 1574.59 1594.36


--------------------------------------------------------------------------------
  K point     51 =   0.062500  0.812500  0.312500  Weight =    0.004
--------------------------------------------------------------------------------

  Frequencies (cm-1) [NB: Negative implies an imaginary mode]:

  419.34  484.74  635.66  857.20  889.76  978.33  994.31 1029.15 1031.19
 1107.93 1112.19 1152.86 1281.70 1327.35 1349.12 1411.18 1412.32 1435.64
 1436.22 1450.07 1488.99 1547.41 1553.74 1582.80


--------------------------------------------------------------------------------
  K point     52 =   0.062500  0.812500  0.437500  Weight =    0.004
--------------------------------------------------------------------------------

  Frequencies (cm-1) [NB: Negative implies an imaginary mode]:

  566.35  623.82  716.34  760.73  779.19  912.79  977.64  980.13 1053.62
 1081.11 1111.57 1134.85 1285.43 1305.53 1383.13 1407.90 1446.15 1455.32
 1468.92 1483.75 1513.80 1523.29 1529.78 1561.34


--------------------------------------------------------------------------------
  K point     53 =   0.062500  0.812500  0.562500  Weight =    0.004
--------------------------------------------------------------------------------

  Frequencies (cm-1) [NB: Negative implies an imaginary mode]:

  566.35  623.82  716.34  760.73  779.19  912.79  977.64  980.13 1053.62
 1081.11 1111.57 1134.85 1285.43 1305.53 1383.13 1407.90 1446.15 1455.32
 1468.92 1483.75 1513.80 1523.29 1529.78 1561.34


--------------------------------------------------------------------------------
  K point     54 =   0.062500  0.812500  0.687500  Weight =    0.004
--------------------------------------------------------------------------------

  Frequencies (cm-1) [NB: Negative implies an imaginary mode]:

  419.34  484.74  635.66  857.20  889.76  978.33  994.31 1029.15 1031.19
 1107.93 1112.19 1152.86 1281.70 1327.35 1349.12 1411.18 1412.32 1435.64
 1436.22 1450.07 1488.99 1547.41 1553.74 1582.80


--------------------------------------------------------------------------------
  K point     55 =   0.062500  0.812500  0.812500  Weight =    0.004
--------------------------------------------------------------------------------

  Frequencies (cm-1) [NB: Negative implies an imaginary mode]:

  299.82  355.35  490.78  977.73  977.73 1006.90 1006.90 1021.90 1125.53
 1128.49 1128.49 1163.71 1305.89 1311.46 1344.71 1344.71 1383.66 1383.66
 1429.93 1441.79 1441.79 1571.04 1574.59 1594.36


--------------------------------------------------------------------------------
  K point     56 =   0.062500  0.812500  0.937500  Weight =    0.004
--------------------------------------------------------------------------------

  Frequencies (cm-1) [NB: Negative implies an imaginary mode]:

  252.08  269.55  367.05  980.33  990.05 1058.59 1058.59 1097.15 1097.15
 1152.10 1193.87 1193.87 1272.98 1272.98 1347.74 1347.74 1353.16 1359.51
 1398.88 1398.88 1445.27 1584.89 1585.33 1597.44


--------------------------------------------------------------------------------
  K point     57 =   0.062500  0.937500  0.062500  Weight =    0.004
--------------------------------------------------------------------------------

  Frequencies (cm-1) [NB: Negative implies an imaginary mode]:

  128.38  128.38  204.96 1065.84 1065.84 1065.84 1079.48 1079.48 1079.48
 1241.94 1241.94 1241.94 1294.05 1294.05 1294.05 1313.71 1313.71 1313.71
 1378.15 1378.15 1378.15 1597.16 1597.16 1601.35


--------------------------------------------------------------------------------
  K point     58 =   0.062500  0.937500  0.187500  Weight =    0.004
--------------------------------------------------------------------------------

  Frequencies (cm-1) [NB: Negative implies an imaginary mode]:

  252.08  269.55  367.05  980.33  990.05 1058.59 1058.59 1097.15 1097.15
 1152.10 1193.87 1193.87 1272.98 1272.98 1347.74 1347.74 1353.16 1359.51
 1398.88 1398.88 1445.27 1584.89 1585.33 1597.44


--------------------------------------------------------------------------------
  K point     59 =   0.062500  0.937500  0.312500  Weight =    0.004
--------------------------------------------------------------------------------

  Frequencies (cm-1) [NB: Negative implies an imaginary mode]:

  414.08  426.12  543.63  861.76  867.63 1025.09 1060.04 1060.04 1115.63
 1115.63 1148.27 1148.27 1242.32 1242.32 1379.33 1379.33 1417.98 1417.98
 1419.59 1424.05 1500.02 1561.58 1561.81 1587.06


--------------------------------------------------------------------------------
  K point     60 =   0.062500  0.937500  0.437500  Weight =    0.004
--------------------------------------------------------------------------------

  Frequencies (cm-1) [NB: Negative implies an imaginary mode]:

  575.22  580.15  716.40  726.59  727.72  878.40 1070.38 1070.38 1108.95
 1108.95 1135.44 1135.44 1219.83 1219.83 1396.69 1396.69 1428.28 1428.28
 1478.26 1481.20 1525.86 1527.31 1540.60 1568.83


--------------------------------------------------------------------------------
  K point     61 =   0.062500  0.937500  0.562500  Weight =    0.004
--------------------------------------------------------------------------------

  Frequencies (cm-1) [NB: Negative implies an imaginary mode]:

  575.22  580.15  716.40  726.59  727.72  878.40 1070.38 1070.38 1108.95
 1108.95 1135.44 1135.44 1219.83 1219.83 1396.69 1396.69 1428.28 1428.28
 1478.26 1481.20 1525.86 1527.31 1540.60 1568.83


--------------------------------------------------------------------------------
  K point     62 =   0.062500  0.937500  0.687500  Weight =    0.004
--------------------------------------------------------------------------------

  Frequencies (cm-1) [NB: Negative implies an imaginary mode]:

  414.08  426.12  543.63  861.76  867.63 1025.09 1060.04 1060.04 1115.63
 1115.63 1148.27 1148.27 1242.32 1242.32 1379.33 1379.33 1417.98 1417.98
 1419.59 1424.05 1500.02 1561.58 1561.81 1587.06


--------------------------------------------------------------------------------
  K point     63 =   0.062500  0.937500  0.812500  Weight =    0.004
--------------------------------------------------------------------------------

  Frequencies (cm-1) [NB: Negative implies an imaginary mode]:

  252.08  269.55  367.05  980.33  990.05 1058.59 1058.59 1097.15 1097.15
 1152.10 1193.87 1193.87 1272.98 1272.98 1347.74 1347.74 1353.16 1359.51
 1398.88 1398.88 1445.27 1584.89 1585.33 1597.44


--------------------------------------------------------------------------------
  K point     64 =   0.062500  0.937500  0.937500  Weight =    0.004
--------------------------------------------------------------------------------

  Frequencies (cm-1) [NB: Negative implies an imaginary mode]:

  128.38  128.38  204.96 1065.84 1065.84 1065.84 1079.48 1079.48 1079.48
 1241.94 1241.94 1241.94 1294.05 1294.05 1294.05 1313.71 1313.71 1313.71
 1378.15 1378.15 1378.15 1597.16 1597.16 1601.35


--------------------------------------------------------------------------------
  K point     65 =   0.187500  0.062500  0.062500  Weight =    0.004
--------------------------------------------------------------------------------

  Frequencies (cm-1) [NB: Negative implies an imaginary mode]:

  252.08  269.55  367.05  980.33  990.05 1058.59 1058.59 1097.15 1097.15
 1152.10 1193.87 1193.87 1272.98 1272.98 1347.74 1347.74 1353.16 1359.51
 1398.88 1398.88 1445.27 1584.89 1585.33 1597.44


--------------------------------------------------------------------------------
  K point     66 =   0.187500  0.062500  0.187500  Weight =    0.004
--------------------------------------------------------------------------------

  Frequencies (cm-1) [NB: Negative implies an imaginary mode]:

  299.82  355.35  490.78  977.73  977.73 1006.90 1006.90 1021.90 1125.53
 1128.49 1128.49 1163.71 1305.89 1311.46 1344.71 1344.71 1383.66 1383.66
 1429.93 1441.79 1441.79 1571.04 1574.59 1594.36


--------------------------------------------------------------------------------
  K point     67 =   0.187500  0.062500  0.312500  Weight =    0.004
--------------------------------------------------------------------------------

  Frequencies (cm-1) [NB: Negative implies an imaginary mode]:

  419.34  484.74  635.66  857.20  889.76  978.33  994.31 1029.15 1031.19
 1107.93 1112.19 1152.86 1281.70 1327.35 1349.12 1411.18 1412.32 1435.64
 1436.22 1450.07 1488.99 1547.41 1553.74 1582.80


--------------------------------------------------------------------------------
  K point     68 =   0.187500  0.062500  0.437500  Weight =    0.004
--------------------------------------------------------------------------------

  Frequencies (cm-1) [NB: Negative implies an imaginary mode]:

  566.35  623.82  716.34  760.73  779.19  912.79  977.64  980.13 1053.62
 1081.11 1111.57 1134.85 1285.43 1305.53 1383.13 1407.90 1446.15 1455.32
 1468.92 1483.75 1513.80 1523.29 1529.78 1561.34


--------------------------------------------------------------------------------
  K point     69 =   0.187500  0.062500  0.562500  Weight =    0.004
--------------------------------------------------------------------------------

  Frequencies (cm-1) [NB: Negative implies an imaginary mode]:

  566.35  623.82  716.34  760.73  779.19  912.79  977.64  980.13 1053.62
 1081.11 1111.57 1134.85 1285.43 1305.53 1383.13 1407.90 1446.15 1455.32
 1468.92 1483.75 1513.80 1523.29 1529.78 1561.34


--------------------------------------------------------------------------------
  K point     70 =   0.187500  0.062500  0.687500  Weight =    0.004
--------------------------------------------------------------------------------

  Frequencies (cm-1) [NB: Negative implies an imaginary mode]:

  419.34  484.74  635.66  857.20  889.76  978.33  994.31 1029.15 1031.19
 1107.93 1112.19 1152.86 1281.70 1327.35 1349.12 1411.18 1412.32 1435.64
 1436.22 1450.07 1488.99 1547.41 1553.74 1582.80


--------------------------------------------------------------------------------
  K point     71 =   0.187500  0.062500  0.812500  Weight =    0.004
--------------------------------------------------------------------------------

  Frequencies (cm-1) [NB: Negative implies an imaginary mode]:

  299.82  355.35  490.78  977.73  977.73 1006.90 1006.90 1021.90 1125.53
 1128.49 1128.49 1163.71 1305.89 1311.46 1344.71 1344.71 1383.66 1383.66
 1429.93 1441.79 1441.79 1571.04 1574.59 1594.36


--------------------------------------------------------------------------------
  K point     72 =   0.187500  0.062500  0.937500  Weight =    0.004
--------------------------------------------------------------------------------

  Frequencies (cm-1) [NB: Negative implies an imaginary mode]:

  252.08  269.55  367.05  980.33  990.05 1058.59 1058.59 1097.15 1097.15
 1152.10 1193.87 1193.87 1272.98 1272.98 1347.74 1347.74 1353.16 1359.51
 1398.88 1398.88 1445.27 1584.89 1585.33 1597.44


--------------------------------------------------------------------------------
  K point     73 =   0.187500  0.187500  0.062500  Weight =    0.004
--------------------------------------------------------------------------------

  Frequencies (cm-1) [NB: Negative implies an imaginary mode]:

  299.82  355.35  490.78  977.73  977.73 1006.90 1006.90 1021.90 1125.53
 1128.49 1128.49 1163.71 1305.89 1311.46 1344.71 1344.71 1383.66 1383.66
 1429.93 1441.79 1441.79 1571.04 1574.59 1594.36


--------------------------------------------------------------------------------
  K point     74 =   0.187500  0.187500  0.187500  Weight =    0.004
--------------------------------------------------------------------------------

  Frequencies (cm-1) [NB: Negative implies an imaginary mode]:

  374.30  374.30  594.56  955.33  955.33  955.33 1018.64 1018.64 1018.64
 1124.90 1124.90 1124.90 1354.94 1354.94 1354.94 1376.54 1376.54 1376.54
 1448.58 1448.58 1448.58 1560.01 1560.01 1592.49


--------------------------------------------------------------------------------
  K point     75 =   0.187500  0.187500  0.312500  Weight =    0.004
--------------------------------------------------------------------------------

  Frequencies (cm-1) [NB: Negative implies an imaginary mode]:

  463.10  487.13  721.50  854.72  884.79  939.16  939.16 1011.87 1011.87
 1054.07 1131.58 1131.58 1345.83 1345.83 1390.14 1390.14 1410.31 1439.05
 1454.19 1454.19 1480.98 1538.00 1538.23 1581.22


--------------------------------------------------------------------------------
  K point     76 =   0.187500  0.187500  0.437500  Weight =    0.004
--------------------------------------------------------------------------------

  Frequencies (cm-1) [NB: Negative implies an imaginary mode]:

  594.22  612.48  737.61  739.95  846.57  931.90  931.90  959.47 1000.17
 1000.17 1141.35 1141.35 1334.77 1334.77 1404.19 1404.19 1456.01 1456.01
 1462.04 1480.78 1505.15 1511.85 1522.07 1557.75


--------------------------------------------------------------------------------
  K point     77 =   0.187500  0.187500  0.562500  Weight =    0.004
--------------------------------------------------------------------------------

  Frequencies (cm-1) [NB: Negative implies an imaginary mode]:

  594.22  612.48  737.61  739.95  846.57  931.90  931.90  959.47 1000.17
 1000.17 1141.35 1141.35 1334.77 1334.77 1404.19 1404.19 1456.01 1456.01
 1462.04 1480.78 1505.15 1511.85 1522.07 1557.75


--------------------------------------------------------------------------------
  K point     78 =   0.187500  0.187500  0.687500  Weight =    0.004
--------------------------------------------------------------------------------

  Frequencies (cm-1) [NB: Negative implies an imaginary mode]:

  463.10  487.13  721.50  854.72  884.79  939.16  939.16 1011.87 1011.87
 1054.07 1131.58 1131.58 1345.83 1345.83 1390.14 1390.14 1410.31 1439.05
 1454.19 1454.19 1480.98 1538.00 1538.23 1581.22


--------------------------------------------------------------------------------
  K point     79 =   0.187500  0.187500  0.812500  Weight =    0.004
--------------------------------------------------------------------------------

  Frequencies (cm-1) [NB: Negative implies an imaginary mode]:

  374.30  374.30  594.56  955.33  955.33  955.33 1018.64 1018.64 1018.64
 1124.90 1124.90 1124.90 1354.94 1354.94 1354.94 1376.54 1376.54 1376.54
 1448.58 1448.58 1448.58 1560.01 1560.01 1592.49


--------------------------------------------------------------------------------
  K point     80 =   0.187500  0.187500  0.937500  Weight =    0.004
--------------------------------------------------------------------------------

  Frequencies (cm-1) [NB: Negative implies an imaginary mode]:

  299.82  355.35  490.78  977.73  977.73 1006.90 1006.90 1021.90 1125.53
 1128.49 1128.49 1163.71 1305.89 1311.46 1344.71 1344.71 1383.66 1383.66
 1429.93 1441.79 1441.79 1571.04 1574.59 1594.36


--------------------------------------------------------------------------------
  K point     81 =   0.187500  0.312500  0.062500  Weight =    0.004
--------------------------------------------------------------------------------

  Frequencies (cm-1) [NB: Negative implies an imaginary mode]:

  419.34  484.74  635.66  857.20  889.76  978.33  994.31 1029.15 1031.19
 1107.93 1112.19 1152.86 1281.70 1327.35 1349.12 1411.18 1412.32 1435.64
 1436.22 1450.07 1488.99 1547.41 1553.74 1582.80


--------------------------------------------------------------------------------
  K point     82 =   0.187500  0.312500  0.187500  Weight =    0.004
--------------------------------------------------------------------------------

  Frequencies (cm-1) [NB: Negative implies an imaginary mode]:

  463.10  487.13  721.50  854.72  884.79  939.16  939.16 1011.87 1011.87
 1054.07 1131.58 1131.58 1345.83 1345.83 1390.14 1390.14 1410.31 1439.05
 1454.19 1454.19 1480.98 1538.00 1538.23 1581.22


--------------------------------------------------------------------------------
  K point     83 =   0.187500  0.312500  0.312500  Weight =    0.004
--------------------------------------------------------------------------------

  Frequencies (cm-1) [NB: Negative implies an imaginary mode]:

  518.39  564.62  827.70  846.29  846.29  894.45  894.45  895.44  981.31
 1086.78 1086.78 1147.64 1370.51 1382.34 1401.40 1401.40 1447.29 1447.29
 1464.94 1466.10 1466.10 1514.79 1520.37 1570.01


--------------------------------------------------------------------------------
  K point     84 =   0.187500  0.312500  0.437500  Weight =    0.004
--------------------------------------------------------------------------------

  Frequencies (cm-1) [NB: Negative implies an imaginary mode]:

  612.54  668.55  730.03  779.62  845.91  862.26  916.89  930.36  947.37
 1018.75 1119.12 1142.48 1376.44 1388.07 1409.90 1438.25 1447.71 1462.05
 1467.01 1476.15 1485.41 1497.77 1506.54 1545.44


--------------------------------------------------------------------------------
  K point     85 =   0.187500  0.312500  0.562500  Weight =    0.004
--------------------------------------------------------------------------------

  Frequencies (cm-1) [NB: Negative implies an imaginary mode]:

  612.54  668.55  730.03  779.62  845.91  862.26  916.89  930.36  947.37
 1018.75 1119.12 1142.48 1376.44 1388.07 1409.90 1438.25 1447.71 1462.05
 1467.01 1476.15 1485.41 1497.77 1506.54 1545.44


--------------------------------------------------------------------------------
  K point     86 =   0.187500  0.312500  0.687500  Weight =    0.004
--------------------------------------------------------------------------------

  Frequencies (cm-1) [NB: Negative implies an imaginary mode]:

  518.39  564.62  827.70  846.29  846.29  894.45  894.45  895.44  981.31
 1086.78 1086.78 1147.64 1370.51 1382.34 1401.40 1401.40 1447.29 1447.29
 1464.94 1466.10 1466.10 1514.79 1520.37 1570.01


--------------------------------------------------------------------------------
  K point     87 =   0.187500  0.312500  0.812500  Weight =    0.004
--------------------------------------------------------------------------------

  Frequencies (cm-1) [NB: Negative implies an imaginary mode]:

  463.10  487.13  721.50  854.72  884.79  939.16  939.16 1011.87 1011.87
 1054.07 1131.58 1131.58 1345.83 1345.83 1390.14 1390.14 1410.31 1439.05
 1454.19 1454.19 1480.98 1538.00 1538.23 1581.22


--------------------------------------------------------------------------------
  K point     88 =   0.187500  0.312500  0.937500  Weight =    0.004
--------------------------------------------------------------------------------

  Frequencies (cm-1) [NB: Negative implies an imaginary mode]:

  419.34  484.74  635.66  857.20  889.76  978.33  994.31 1029.15 1031.19
 1107.93 1112.19 1152.86 1281.70 1327.35 1349.12 1411.18 1412.32 1435.64
 1436.22 1450.07 1488.99 1547.41 1553.74 1582.80


--------------------------------------------------------------------------------
  K point     89 =   0.187500  0.437500  0.062500  Weight =    0.004
--------------------------------------------------------------------------------

  Frequencies (cm-1) [NB: Negative implies an imaginary mode]:

  566.35  623.82  716.34  760.73  779.19  912.79  977.64  980.13 1053.62
 1081.11 1111.57 1134.85 1285.43 1305.53 1383.13 1407.90 1446.15 1455.32
 1468.92 1483.75 1513.80 1523.29 1529.78 1561.34


--------------------------------------------------------------------------------
  K point     90 =   0.187500  0.437500  0.187500  Weight =    0.004
--------------------------------------------------------------------------------

  Frequencies (cm-1) [NB: Negative implies an imaginary mode]:

  594.22  612.48  737.61  739.95  846.57  931.90  931.90  959.47 1000.17
 1000.17 1141.35 1141.35 1334.77 1334.77 1404.19 1404.19 1456.01 1456.01
 1462.04 1480.78 1505.15 1511.85 1522.07 1557.75


--------------------------------------------------------------------------------
  K point     91 =   0.187500  0.437500  0.312500  Weight =    0.004
--------------------------------------------------------------------------------

  Frequencies (cm-1) [NB: Negative implies an imaginary mode]:

  612.54  668.55  730.03  779.62  845.91  862.26  916.89  930.36  947.37
 1018.75 1119.12 1142.48 1376.44 1388.07 1409.90 1438.25 1447.71 1462.05
 1467.01 1476.15 1485.41 1497.77 1506.54 1545.44


--------------------------------------------------------------------------------
  K point     92 =   0.187500  0.437500  0.437500  Weight =    0.004
--------------------------------------------------------------------------------

  Frequencies (cm-1) [NB: Negative implies an imaginary mode]:

  665.46  747.35  749.11  749.11  796.09  832.50  832.50  890.46 1009.55
 1074.30 1074.30 1117.85 1407.34 1428.63 1428.63 1435.32 1459.63 1464.07
 1464.07 1476.55 1481.30 1487.92 1487.92 1521.65


--------------------------------------------------------------------------------
  K point     93 =   0.187500  0.437500  0.562500  Weight =    0.004
--------------------------------------------------------------------------------

  Frequencies (cm-1) [NB: Negative implies an imaginary mode]:

  665.46  747.35  749.11  749.11  796.09  832.50  832.50  890.46 1009.55
 1074.30 1074.30 1117.85 1407.34 1428.63 1428.63 1435.32 1459.63 1464.07
 1464.07 1476.55 1481.30 1487.92 1487.92 1521.65


--------------------------------------------------------------------------------
  K point     94 =   0.187500  0.437500  0.687500  Weight =    0.004
--------------------------------------------------------------------------------

  Frequencies (cm-1) [NB: Negative implies an imaginary mode]:

  612.54  668.55  730.03  779.62  845.91  862.26  916.89  930.36  947.37
 1018.75 1119.12 1142.48 1376.44 1388.07 1409.90 1438.25 1447.71 1462.05
 1467.01 1476.15 1485.41 1497.77 1506.54 1545.44


--------------------------------------------------------------------------------
  K point     95 =   0.187500  0.437500  0.812500  Weight =    0.004
--------------------------------------------------------------------------------

  Frequencies (cm-1) [NB: Negative implies an imaginary mode]:

  594.22  612.48  737.61  739.95  846.57  931.90  931.90  959.47 1000.17
 1000.17 1141.35 1141.35 1334.77 1334.77 1404.19 1404.19 1456.01 1456.01
 1462.04 1480.78 1505.15 1511.85 1522.07 1557.75


--------------------------------------------------------------------------------
  K point     96 =   0.187500  0.437500  0.937500  Weight =    0.004
--------------------------------------------------------------------------------

  Frequencies (cm-1) [NB: Negative implies an imaginary mode]:

  566.35  623.82  716.34  760.73  779.19  912.79  977.64  980.13 1053.62
 1081.11 1111.57 1134.85 1285.43 1305.53 1383.13 1407.90 1446.15 1455.32
 1468.92 1483.75 1513.80 1523.29 1529.78 1561.34


--------------------------------------------------------------------------------
  K point     97 =   0.187500  0.562500  0.062500  Weight =    0.004
--------------------------------------------------------------------------------

  Frequencies (cm-1) [NB: Negative implies an imaginary mode]:

  566.35  623.82  716.34  760.73  779.19  912.79  977.64  980.13 1053.62
 1081.11 1111.57 1134.85 1285.43 1305.53 1383.13 1407.90 1446.15 1455.32
 1468.92 1483.75 1513.80 1523.29 1529.78 1561.34


--------------------------------------------------------------------------------
  K point     98 =   0.187500  0.562500  0.187500  Weight =    0.004
--------------------------------------------------------------------------------

  Frequencies (cm-1) [NB: Negative implies an imaginary mode]:

  594.22  612.48  737.61  739.95  846.57  931.90  931.90  959.47 1000.17
 1000.17 1141.35 1141.35 1334.77 1334.77 1404.19 1404.19 1456.01 1456.01
 1462.04 1480.78 1505.15 1511.85 1522.07 1557.75


--------------------------------------------------------------------------------
  K point     99 =   0.187500  0.562500  0.312500  Weight =    0.004
--------------------------------------------------------------------------------

  Frequencies (cm-1) [NB: Negative implies an imaginary mode]:

  612.54  668.55  730.03  779.62  845.91  862.26  916.89  930.36  947.37
 1018.75 1119.12 1142.48 1376.44 1388.07 1409.90 1438.25 1447.71 1462.05
 1467.01 1476.15 1485.41 1497.77 1506.54 1545.44


--------------------------------------------------------------------------------
  K point    100 =   0.187500  0.562500  0.437500  Weight =    0.004
--------------------------------------------------------------------------------

  Frequencies (cm-1) [NB: Negative implies an imaginary mode]:

  665.46  747.35  749.11  749.11  796.09  832.50  832.50  890.46 1009.55
 1074.30 1074.30 1117.85 1407.34 1428.63 1428.63 1435.32 1459.63 1464.07
 1464.07 1476.55 1481.30 1487.92 1487.92 1521.65


--------------------------------------------------------------------------------
  K point    101 =   0.187500  0.562500  0.562500  Weight =    0.004
--------------------------------------------------------------------------------

  Frequencies (cm-1) [NB: Negative implies an imaginary mode]:

  665.46  747.35  749.11  749.11  796.09  832.50  832.50  890.46 1009.55
 1074.30 1074.30 1117.85 1407.34 1428.63 1428.63 1435.32 1459.63 1464.07
 1464.07 1476.55 1481.30 1487.92 1487.92 1521.65


--------------------------------------------------------------------------------
  K point    102 =   0.187500  0.562500  0.687500  Weight =    0.004
--------------------------------------------------------------------------------

  Frequencies (cm-1) [NB: Negative implies an imaginary mode]:

  612.54  668.55  730.03  779.62  845.91  862.26  916.89  930.36  947.37
 1018.75 1119.12 1142.48 1376.44 1388.07 1409.90 1438.25 1447.71 1462.05
 1467.01 1476.15 1485.41 1497.77 1506.54 1545.44


--------------------------------------------------------------------------------
  K point    103 =   0.187500  0.562500  0.812500  Weight =    0.004
--------------------------------------------------------------------------------

  Frequencies (cm-1) [NB: Negative implies an imaginary mode]:

  594.22  612.48  737.61  739.95  846.57  931.90  931.90  959.47 1000.17
 1000.17 1141.35 1141.35 1334.77 1334.77 1404.19 1404.19 1456.01 1456.01
 1462.04 1480.78 1505.15 1511.85 1522.07 1557.75


--------------------------------------------------------------------------------
  K point    104 =   0.187500  0.562500  0.937500  Weight =    0.004
--------------------------------------------------------------------------------

  Frequencies (cm-1) [NB: Negative implies an imaginary mode]:

  566.35  623.82  716.34  760.73  779.19  912.79  977.64  980.13 1053.62
 1081.11 1111.57 1134.85 1285.43 1305.53 1383.13 1407.90 1446.15 1455.32
 1468.92 1483.75 1513.80 1523.29 1529.78 1561.34


--------------------------------------------------------------------------------
  K point    105 =   0.187500  0.687500  0.062500  Weight =    0.004
--------------------------------------------------------------------------------

  Frequencies (cm-1) [NB: Negative implies an imaginary mode]:

  419.34  484.74  635.66  857.20  889.76  978.33  994.31 1029.15 1031.19
 1107.93 1112.19 1152.86 1281.70 1327.35 1349.12 1411.18 1412.32 1435.64
 1436.22 1450.07 1488.99 1547.41 1553.74 1582.80


--------------------------------------------------------------------------------
  K point    106 =   0.187500  0.687500  0.187500  Weight =    0.004
--------------------------------------------------------------------------------

  Frequencies (cm-1) [NB: Negative implies an imaginary mode]:

  463.10  487.13  721.50  854.72  884.79  939.16  939.16 1011.87 1011.87
[...]
--------------------------------------------------------------------------------
  Zero point energy            =        1.735960 eV
  Entropy                      =        0.000002 eV/K
                               =        0.187087 J/(mol.K)
  Helmholtz free-energy        =      -57.213618 eV
                               =    -5520.239034 kJmol-1
  Free energy (equipartition)  =      -58.454121 eV
  - T*S       (equipartition)  =        0.329969 eV
  Uvib        (equipartition)  =        0.165453 eV
  Mean kinetic energy          =        0.868040 eV
  Heat capacity - const volume =        0.000006 eV/K
                               =        0.601131 J/(mol.K)
--------------------------------------------------------------------------------
  Phonon properties (per mole of unit cells): Temperature =     90.000 K
--------------------------------------------------------------------------------
  Zero point energy            =        1.735960 eV
  Entropy                      =        0.000003 eV/K
                               =        0.272795 J/(mol.K)
  Helmholtz free-energy        =      -57.213641 eV
                               =    -5520.241315 kJmol-1
  Free energy (equipartition)  =      -58.414117 eV
  - T*S       (equipartition)  =        0.349292 eV
  Uvib        (equipartition)  =        0.186134 eV
  Mean kinetic energy          =        0.868078 eV
  Heat capacity - const volume =        0.000009 eV/K
                               =        0.871594 J/(mol.K)
--------------------------------------------------------------------------------
  Phonon properties (per mole of unit cells): Temperature =    100.000 K
--------------------------------------------------------------------------------
  Zero point energy            =        1.735960 eV
  Entropy                      =        0.000004 eV/K
                               =        0.381969 J/(mol.K)
  Helmholtz free-energy        =      -57.213675 eV
                               =    -5520.244568 kJmol-1
  Free energy (equipartition)  =      -58.376415 eV
  - T*S       (equipartition)  =        0.366312 eV
  Uvib        (equipartition)  =        0.206816 eV
  Mean kinetic energy          =        0.868132 eV
  Heat capacity - const volume =        0.000013 eV/K
                               =        1.221264 J/(mol.K)
--------------------------------------------------------------------------------
  Phonon properties (per mole of unit cells): Temperature =    110.000 K
--------------------------------------------------------------------------------
  Zero point energy            =        1.735960 eV
  Entropy                      =        0.000005 eV/K
                               =        0.518333 J/(mol.K)
  Helmholtz free-energy        =      -57.213721 eV
                               =    -5520.249045 kJmol-1
  Free energy (equipartition)  =      -58.340785 eV
  - T*S       (equipartition)  =        0.381260 eV
  Uvib        (equipartition)  =        0.227498 eV
  Mean kinetic energy          =        0.868206 eV
  Heat capacity - const volume =        0.000017 eV/K
                               =        1.663866 J/(mol.K)
--------------------------------------------------------------------------------
  Phonon properties (per mole of unit cells): Temperature =    120.000 K
--------------------------------------------------------------------------------
  Zero point energy            =        1.735960 eV
  Entropy                      =        0.000007 eV/K
                               =        0.685826 J/(mol.K)
  Helmholtz free-energy        =      -57.213784 eV
                               =    -5520.255038 kJmol-1
  Free energy (equipartition)  =      -58.307038 eV
  - T*S       (equipartition)  =        0.394325 eV
  Uvib        (equipartition)  =        0.248179 eV
  Mean kinetic energy          =        0.868306 eV
  Heat capacity - const volume =        0.000023 eV/K
                               =        2.212768 J/(mol.K)
--------------------------------------------------------------------------------
  Phonon properties (per mole of unit cells): Temperature =    130.000 K
--------------------------------------------------------------------------------
  Zero point energy            =        1.735960 eV
  Entropy                      =        0.000009 eV/K
                               =        0.888465 J/(mol.K)
  Helmholtz free-energy        =      -57.213865 eV
                               =    -5520.262879 kJmol-1
  Free energy (equipartition)  =      -58.275016 eV
  - T*S       (equipartition)  =        0.405665 eV
  Uvib        (equipartition)  =        0.268861 eV
  Mean kinetic energy          =        0.868438 eV
  Heat capacity - const volume =        0.000030 eV/K
                               =        2.880033 J/(mol.K)
--------------------------------------------------------------------------------
  Phonon properties (per mole of unit cells): Temperature =    140.000 K
--------------------------------------------------------------------------------
  Zero point energy            =        1.735960 eV
  Entropy                      =        0.000012 eV/K
                               =        1.130198 J/(mol.K)
  Helmholtz free-energy        =      -57.213969 eV
                               =    -5520.272938 kJmol-1
  Free energy (equipartition)  =      -58.244587 eV
  - T*S       (equipartition)  =        0.415413 eV
  Uvib        (equipartition)  =        0.289542 eV
  Mean kinetic energy          =        0.868607 eV
  Heat capacity - const volume =        0.000038 eV/K
                               =        3.675709 J/(mol.K)
--------------------------------------------------------------------------------
  Phonon properties (per mole of unit cells): Temperature =    150.000 K
--------------------------------------------------------------------------------
  Zero point energy            =        1.735960 eV
  Entropy                      =        0.000015 eV/K
                               =        1.414768 J/(mol.K)
  Helmholtz free-energy        =      -57.214101 eV
                               =    -5520.285625 kJmol-1
  Free energy (equipartition)  =      -58.215636 eV
  - T*S       (equipartition)  =        0.423682 eV
  Uvib        (equipartition)  =        0.310224 eV
  Mean kinetic energy          =        0.868821 eV
  Heat capacity - const volume =        0.000048 eV/K
                               =        4.607441 J/(mol.K)
--------------------------------------------------------------------------------
  Phonon properties (per mole of unit cells): Temperature =    160.000 K
--------------------------------------------------------------------------------
  Zero point energy            =        1.735960 eV
  Entropy                      =        0.000018 eV/K
                               =        1.745607 J/(mol.K)
  Helmholtz free-energy        =      -57.214264 eV
                               =    -5520.301387 kJmol-1
  Free energy (equipartition)  =      -58.188066 eV
  - T*S       (equipartition)  =        0.430572 eV
  Uvib        (equipartition)  =        0.330906 eV
  Mean kinetic energy          =        0.869087 eV
  Heat capacity - const volume =        0.000059 eV/K
                               =        5.680361 J/(mol.K)
--------------------------------------------------------------------------------
  Phonon properties (per mole of unit cells): Temperature =    170.000 K
--------------------------------------------------------------------------------
  Zero point energy            =        1.735960 eV
  Entropy                      =        0.000022 eV/K
                               =        2.125758 J/(mol.K)
  Helmholtz free-energy        =      -57.214464 eV
                               =    -5520.320702 kJmol-1
  Free energy (equipartition)  =      -58.161788 eV
  - T*S       (equipartition)  =        0.436167 eV
  Uvib        (equipartition)  =        0.351587 eV
  Mean kinetic energy          =        0.869412 eV
  Heat capacity - const volume =        0.000071 eV/K
                               =        6.897173 J/(mol.K)
--------------------------------------------------------------------------------
  Phonon properties (per mole of unit cells): Temperature =    180.000 K
--------------------------------------------------------------------------------
  Zero point energy            =        1.735960 eV
  Entropy                      =        0.000027 eV/K
                               =        2.557835 J/(mol.K)
  Helmholtz free-energy        =      -57.214706 eV
                               =    -5520.344076 kJmol-1
  Free energy (equipartition)  =      -58.136728 eV
  - T*S       (equipartition)  =        0.440546 eV
  Uvib        (equipartition)  =        0.372269 eV
  Mean kinetic energy          =        0.869804 eV
  Heat capacity - const volume =        0.000086 eV/K
                               =        8.258351 J/(mol.K)
--------------------------------------------------------------------------------
  Phonon properties (per mole of unit cells): Temperature =    190.000 K
--------------------------------------------------------------------------------
  Zero point energy            =        1.735960 eV
  Entropy                      =        0.000032 eV/K
                               =        3.043996 J/(mol.K)
  Helmholtz free-energy        =      -57.214996 eV
                               =    -5520.372039 kJmol-1
  Free energy (equipartition)  =      -58.112817 eV
  - T*S       (equipartition)  =        0.443775 eV
  Uvib        (equipartition)  =        0.392951 eV
  Mean kinetic energy          =        0.870270 eV
  Heat capacity - const volume =        0.000101 eV/K
                               =        9.762385 J/(mol.K)
--------------------------------------------------------------------------------
  Phonon properties (per mole of unit cells): Temperature =    200.000 K
--------------------------------------------------------------------------------
  Zero point energy            =        1.735960 eV
  Entropy                      =        0.000037 eV/K
                               =        3.585947 J/(mol.K)
  Helmholtz free-energy        =      -57.215339 eV
                               =    -5520.405142 kJmol-1
  Free energy (equipartition)  =      -58.089996 eV
  - T*S       (equipartition)  =        0.445915 eV
  Uvib        (equipartition)  =        0.413632 eV
  Mean kinetic energy          =        0.870818 eV
  Heat capacity - const volume =        0.000118 eV/K
                               =       11.406031 J/(mol.K)
--------------------------------------------------------------------------------
  Phonon properties (per mole of unit cells): Temperature =    210.000 K
--------------------------------------------------------------------------------
  Zero point energy            =        1.735960 eV
  Entropy                      =        0.000043 eV/K
                               =        4.184947 J/(mol.K)
  Helmholtz free-energy        =      -57.215741 eV
                               =    -5520.443948 kJmol-1
  Free energy (equipartition)  =      -58.068208 eV
  - T*S       (equipartition)  =        0.447021 eV
  Uvib        (equipartition)  =        0.434314 eV
  Mean kinetic energy          =        0.871455 eV
  Heat capacity - const volume =        0.000137 eV/K
                               =       13.184553 J/(mol.K)
--------------------------------------------------------------------------------
  Phonon properties (per mole of unit cells): Temperature =    220.000 K
--------------------------------------------------------------------------------
  Zero point energy            =        1.735960 eV
  Entropy                      =        0.000050 eV/K
                               =        4.841828 J/(mol.K)
  Helmholtz free-energy        =      -57.216209 eV
                               =    -5520.489034 kJmol-1
  Free energy (equipartition)  =      -58.047407 eV
  - T*S       (equipartition)  =        0.447141 eV
  Uvib        (equipartition)  =        0.454995 eV
  Mean kinetic energy          =        0.872187 eV
  Heat capacity - const volume =        0.000156 eV/K
                               =       15.091944 J/(mol.K)
--------------------------------------------------------------------------------
  Phonon properties (per mole of unit cells): Temperature =    230.000 K
--------------------------------------------------------------------------------
  Zero point energy            =        1.735960 eV
  Entropy                      =        0.000058 eV/K
                               =        5.557021 J/(mol.K)
  Helmholtz free-energy        =      -57.216747 eV
                               =    -5520.540979 kJmol-1
  Free energy (equipartition)  =      -58.027545 eV
  - T*S       (equipartition)  =        0.446321 eV
  Uvib        (equipartition)  =        0.475677 eV
  Mean kinetic energy          =        0.873021 eV
  Heat capacity - const volume =        0.000177 eV/K
                               =       17.121140 J/(mol.K)
--------------------------------------------------------------------------------
  Phonon properties (per mole of unit cells): Temperature =    240.000 K
--------------------------------------------------------------------------------
  Zero point energy            =        1.735960 eV
  Entropy                      =        0.000066 eV/K
                               =        6.330582 J/(mol.K)
  Helmholtz free-energy        =      -57.217363 eV
                               =    -5520.600369 kJmol-1
  Free energy (equipartition)  =      -58.008583 eV
  - T*S       (equipartition)  =        0.444601 eV
  Uvib        (equipartition)  =        0.496359 eV
  Mean kinetic energy          =        0.873964 eV
  Heat capacity - const volume =        0.000200 eV/K
                               =       19.264212 J/(mol.K)
--------------------------------------------------------------------------------
  Phonon properties (per mole of unit cells): Temperature =    250.000 K
--------------------------------------------------------------------------------
  Zero point energy            =        1.735960 eV
  Entropy                      =        0.000074 eV/K
                               =        7.162221 J/(mol.K)
  Helmholtz free-energy        =      -57.218061 eV
                               =    -5520.667784 kJmol-1
  Free energy (equipartition)  =      -57.990483 eV
  - T*S       (equipartition)  =        0.442020 eV
  Uvib        (equipartition)  =        0.517040 eV
  Mean kinetic energy          =        0.875020 eV
  Heat capacity - const volume =        0.000223 eV/K
                               =       21.512553 J/(mol.K)
--------------------------------------------------------------------------------
  Phonon properties (per mole of unit cells): Temperature =    260.000 K
--------------------------------------------------------------------------------
  Zero point energy            =        1.735960 eV
  Entropy                      =        0.000083 eV/K
                               =        8.051336 J/(mol.K)
  Helmholtz free-energy        =      -57.218849 eV
                               =    -5520.743805 kJmol-1
  Free energy (equipartition)  =      -57.973210 eV
  - T*S       (equipartition)  =        0.438611 eV
  Uvib        (equipartition)  =        0.537722 eV
  Mean kinetic energy          =        0.876195 eV
  Heat capacity - const volume =        0.000247 eV/K
                               =       23.857051 J/(mol.K)
--------------------------------------------------------------------------------
  Phonon properties (per mole of unit cells): Temperature =    270.000 K
--------------------------------------------------------------------------------
  Zero point energy            =        1.735960 eV
  Entropy                      =        0.000093 eV/K
                               =        8.997040 J/(mol.K)
  Helmholtz free-energy        =      -57.219732 eV
                               =    -5520.829000 kJmol-1
  Free energy (equipartition)  =      -57.956733 eV
  - T*S       (equipartition)  =        0.434406 eV
  Uvib        (equipartition)  =        0.558403 eV
  Mean kinetic energy          =        0.877494 eV
  Heat capacity - const volume =        0.000272 eV/K
                               =       26.288257 J/(mol.K)
--------------------------------------------------------------------------------
  Phonon properties (per mole of unit cells): Temperature =    280.000 K
--------------------------------------------------------------------------------
  Zero point energy            =        1.735960 eV
  Entropy                      =        0.000104 eV/K
                               =        9.998196 J/(mol.K)
  Helmholtz free-energy        =      -57.220716 eV
                               =    -5520.923930 kJmol-1
  Free energy (equipartition)  =      -57.941023 eV
  - T*S       (equipartition)  =        0.429435 eV
  Uvib        (equipartition)  =        0.579085 eV
  Mean kinetic energy          =        0.878921 eV
  Heat capacity - const volume =        0.000298 eV/K
                               =       28.796535 J/(mol.K)
--------------------------------------------------------------------------------
  Phonon properties (per mole of unit cells): Temperature =    290.000 K
--------------------------------------------------------------------------------
  Zero point energy            =        1.735960 eV
  Entropy                      =        0.000115 eV/K
                               =       11.053449 J/(mol.K)
  Helmholtz free-energy        =      -57.221807 eV
                               =    -5521.029144 kJmol-1
  Free energy (equipartition)  =      -57.926051 eV
  - T*S       (equipartition)  =        0.423725 eV
  Uvib        (equipartition)  =        0.599767 eV
  Mean kinetic energy          =        0.880480 eV
  Heat capacity - const volume =        0.000325 eV/K
                               =       31.372205 J/(mol.K)
--------------------------------------------------------------------------------
  Phonon properties (per mole of unit cells): Temperature =    300.000 K
--------------------------------------------------------------------------------
  Zero point energy            =        1.735960 eV
  Entropy                      =        0.000126 eV/K
                               =       12.161253 J/(mol.K)
  Helmholtz free-energy        =      -57.223009 eV
                               =    -5521.145174 kJmol-1
  Free energy (equipartition)  =      -57.911792 eV
  - T*S       (equipartition)  =        0.417303 eV
  Uvib        (equipartition)  =        0.620448 eV
  Mean kinetic energy          =        0.882173 eV
  Heat capacity - const volume =        0.000352 eV/K
                               =       34.005667 J/(mol.K)
--------------------------------------------------------------------------------

  Time to end of properties =      16.1508 seconds


  Peak dynamic memory used =       1.93 MB 


  Timing analysis for GULP :

--------------------------------------------------------------------------------
  Task / Subroutine                                          Time (Seconds)
--------------------------------------------------------------------------------
  Calculation of real space energy and derivatives                0.0052
  Calculation of Brenner energy and derivatives                  15.7921
  Calculation of phonons                                         16.0663
  Disk read/write operations to scratch files                     0.0640
--------------------------------------------------------------------------------
  Total CPU time                                                 16.1509
--------------------------------------------------------------------------------


  Job Finished at 09:35.37 31st July       2020                               

