********************************************************************************
*                       GENERAL UTILITY LATTICE PROGRAM                        *
*                                 Julian Gale                                  *
*                       Curtin Institute for Computation                       *
*                    School of Molecular and Life Sciences                     *
*                    Curtin University, Western Australia                      *
********************************************************************************
* Version = 5.2.0 * Last modified =  17th December 2019                        *
********************************************************************************
*  single       - perform a single point run                                   *
*  property     - calculate properties for final geometry                      *
*  phonon       - calculate phonons for final geometry                         *
********************************************************************************
* ASE calculation                                                              *
********************************************************************************


  Job Started  at 13:01.54 31st July       2020                               

  Number of CPUs =     1


  Total number of configurations input =      1

********************************************************************************
*  Input for Configuration =   1                                               *
********************************************************************************

  Formula = C8                                                          

  Number of irreducible atoms/shells =       8


  Total number atoms/shells =       8

  Dimensionality = 3               :  Bulk   



  Cartesian lattice vectors (Angstroms) :

        3.587800    0.000000    0.000000
        0.000000    3.587800    0.000000
        0.000000    0.000000    3.587800

  Cell parameters (Angstroms/Degrees):

  a =       3.5878    alpha =  90.0000
  b =       3.5878    beta  =  90.0000
  c =       3.5878    gamma =  90.0000

  Initial cell volume =          46.183270 Angs**3

  Shrinking factors =      8     8     8

  Temperature of configuration =   10.0     K 

  Pressure of configuration =         0.000 GPa 

  Fractional coordinates of asymmetric unit :

--------------------------------------------------------------------------------
   No.  Atomic       x           y          z         Charge      Occupancy
        Label      (Frac)      (Frac)     (Frac)        (e)         (Frac)  
--------------------------------------------------------------------------------
      1 C     c    0.000000    0.000000    0.000000     0.00000    1.000000    
      2 C     c    0.000000    0.500000    0.500000     0.00000    1.000000    
      3 C     c    0.500000    0.500000    0.000000     0.00000    1.000000    
      4 C     c    0.500000    0.000000    0.500000     0.00000    1.000000    
      5 C     c    0.750000    0.250000    0.750000     0.00000    1.000000    
      6 C     c    0.250000    0.250000    0.250000     0.00000    1.000000    
      7 C     c    0.250000    0.750000    0.750000     0.00000    1.000000    
      8 C     c    0.750000    0.750000    0.250000     0.00000    1.000000    
--------------------------------------------------------------------------------


  Brillouin zone sampling points :

--------------------------------------------------------------------------------
  Point number          x          y          z            Weight
--------------------------------------------------------------------------------
        1           0.062500   0.062500   0.062500     0.00390625
        2           0.062500   0.062500   0.187500     0.00390625
        3           0.062500   0.062500   0.312500     0.00390625
        4           0.062500   0.062500   0.437500     0.00390625
        5           0.062500   0.062500   0.562500     0.00390625
        6           0.062500   0.062500   0.687500     0.00390625
        7           0.062500   0.062500   0.812500     0.00390625
        8           0.062500   0.062500   0.937500     0.00390625
        9           0.062500   0.187500   0.062500     0.00390625
       10           0.062500   0.187500   0.187500     0.00390625
       11           0.062500   0.187500   0.312500     0.00390625
       12           0.062500   0.187500   0.437500     0.00390625
       13           0.062500   0.187500   0.562500     0.00390625
       14           0.062500   0.187500   0.687500     0.00390625
       15           0.062500   0.187500   0.812500     0.00390625
       16           0.062500   0.187500   0.937500     0.00390625
       17           0.062500   0.312500   0.062500     0.00390625
       18           0.062500   0.312500   0.187500     0.00390625
       19           0.062500   0.312500   0.312500     0.00390625
       20           0.062500   0.312500   0.437500     0.00390625
       21           0.062500   0.312500   0.562500     0.00390625
       22           0.062500   0.312500   0.687500     0.00390625
       23           0.062500   0.312500   0.812500     0.00390625
       24           0.062500   0.312500   0.937500     0.00390625
       25           0.062500   0.437500   0.062500     0.00390625
       26           0.062500   0.437500   0.187500     0.00390625
       27           0.062500   0.437500   0.312500     0.00390625
       28           0.062500   0.437500   0.437500     0.00390625
       29           0.062500   0.437500   0.562500     0.00390625
       30           0.062500   0.437500   0.687500     0.00390625
       31           0.062500   0.437500   0.812500     0.00390625
       32           0.062500   0.437500   0.937500     0.00390625
       33           0.062500   0.562500   0.062500     0.00390625
       34           0.062500   0.562500   0.187500     0.00390625
       35           0.062500   0.562500   0.312500     0.00390625
       36           0.062500   0.562500   0.437500     0.00390625
       37           0.062500   0.562500   0.562500     0.00390625
       38           0.062500   0.562500   0.687500     0.00390625
       39           0.062500   0.562500   0.812500     0.00390625
       40           0.062500   0.562500   0.937500     0.00390625
       41           0.062500   0.687500   0.062500     0.00390625
       42           0.062500   0.687500   0.187500     0.00390625
       43           0.062500   0.687500   0.312500     0.00390625
       44           0.062500   0.687500   0.437500     0.00390625
       45           0.062500   0.687500   0.562500     0.00390625
       46           0.062500   0.687500   0.687500     0.00390625
       47           0.062500   0.687500   0.812500     0.00390625
       48           0.062500   0.687500   0.937500     0.00390625
       49           0.062500   0.812500   0.062500     0.00390625
       50           0.062500   0.812500   0.187500     0.00390625
       51           0.062500   0.812500   0.312500     0.00390625
       52           0.062500   0.812500   0.437500     0.00390625
       53           0.062500   0.812500   0.562500     0.00390625
       54           0.062500   0.812500   0.687500     0.00390625
       55           0.062500   0.812500   0.812500     0.00390625
       56           0.062500   0.812500   0.937500     0.00390625
       57           0.062500   0.937500   0.062500     0.00390625
       58           0.062500   0.937500   0.187500     0.00390625
       59           0.062500   0.937500   0.312500     0.00390625
       60           0.062500   0.937500   0.437500     0.00390625
       61           0.062500   0.937500   0.562500     0.00390625
       62           0.062500   0.937500   0.687500     0.00390625
       63           0.062500   0.937500   0.812500     0.00390625
       64           0.062500   0.937500   0.937500     0.00390625
       65           0.187500   0.062500   0.062500     0.00390625
       66           0.187500   0.062500   0.187500     0.00390625
       67           0.187500   0.062500   0.312500     0.00390625
       68           0.187500   0.062500   0.437500     0.00390625
       69           0.187500   0.062500   0.562500     0.00390625
       70           0.187500   0.062500   0.687500     0.00390625
       71           0.187500   0.062500   0.812500     0.00390625
       72           0.187500   0.062500   0.937500     0.00390625
       73           0.187500   0.187500   0.062500     0.00390625
       74           0.187500   0.187500   0.187500     0.00390625
       75           0.187500   0.187500   0.312500     0.00390625
       76           0.187500   0.187500   0.437500     0.00390625
       77           0.187500   0.187500   0.562500     0.00390625
       78           0.187500   0.187500   0.687500     0.00390625
       79           0.187500   0.187500   0.812500     0.00390625
       80           0.187500   0.187500   0.937500     0.00390625
       81           0.187500   0.312500   0.062500     0.00390625
       82           0.187500   0.312500   0.187500     0.00390625
       83           0.187500   0.312500   0.312500     0.00390625
       84           0.187500   0.312500   0.437500     0.00390625
       85           0.187500   0.312500   0.562500     0.00390625
       86           0.187500   0.312500   0.687500     0.00390625
       87           0.187500   0.312500   0.812500     0.00390625
       88           0.187500   0.312500   0.937500     0.00390625
       89           0.187500   0.437500   0.062500     0.00390625
       90           0.187500   0.437500   0.187500     0.00390625
       91           0.187500   0.437500   0.312500     0.00390625
       92           0.187500   0.437500   0.437500     0.00390625
       93           0.187500   0.437500   0.562500     0.00390625
       94           0.187500   0.437500   0.687500     0.00390625
       95           0.187500   0.437500   0.812500     0.00390625
       96           0.187500   0.437500   0.937500     0.00390625
       97           0.187500   0.562500   0.062500     0.00390625
       98           0.187500   0.562500   0.187500     0.00390625
       99           0.187500   0.562500   0.312500     0.00390625
      100           0.187500   0.562500   0.437500     0.00390625
      101           0.187500   0.562500   0.562500     0.00390625
      102           0.187500   0.562500   0.687500     0.00390625
      103           0.187500   0.562500   0.812500     0.00390625
      104           0.187500   0.562500   0.937500     0.00390625
      105           0.187500   0.687500   0.062500     0.00390625
      106           0.187500   0.687500   0.187500     0.00390625
      107           0.187500   0.687500   0.312500     0.00390625
      108           0.187500   0.687500   0.437500     0.00390625
      109           0.187500   0.687500   0.562500     0.00390625
      110           0.187500   0.687500   0.687500     0.00390625
      111           0.187500   0.687500   0.812500     0.00390625
      112           0.187500   0.687500   0.937500     0.00390625
      113           0.187500   0.812500   0.062500     0.00390625
      114           0.187500   0.812500   0.187500     0.00390625
      115           0.187500   0.812500   0.312500     0.00390625
      116           0.187500   0.812500   0.437500     0.00390625
      117           0.187500   0.812500   0.562500     0.00390625
      118           0.187500   0.812500   0.687500     0.00390625
      119           0.187500   0.812500   0.812500     0.00390625
      120           0.187500   0.812500   0.937500     0.00390625
      121           0.187500   0.937500   0.062500     0.00390625
      122           0.187500   0.937500   0.187500     0.00390625
      123           0.187500   0.937500   0.312500     0.00390625
      124           0.187500   0.937500   0.437500     0.00390625
      125           0.187500   0.937500   0.562500     0.00390625
      126           0.187500   0.937500   0.687500     0.00390625
      127           0.187500   0.937500   0.812500     0.00390625
      128           0.187500   0.937500   0.937500     0.00390625
      129           0.312500   0.062500   0.062500     0.00390625
      130           0.312500   0.062500   0.187500     0.00390625
      131           0.312500   0.062500   0.312500     0.00390625
      132           0.312500   0.062500   0.437500     0.00390625
      133           0.312500   0.062500   0.562500     0.00390625
      134           0.312500   0.062500   0.687500     0.00390625
      135           0.312500   0.062500   0.812500     0.00390625
      136           0.312500   0.062500   0.937500     0.00390625
      137           0.312500   0.187500   0.062500     0.00390625
      138           0.312500   0.187500   0.187500     0.00390625
      139           0.312500   0.187500   0.312500     0.00390625
      140           0.312500   0.187500   0.437500     0.00390625
      141           0.312500   0.187500   0.562500     0.00390625
      142           0.312500   0.187500   0.687500     0.00390625
      143           0.312500   0.187500   0.812500     0.00390625
      144           0.312500   0.187500   0.937500     0.00390625
      145           0.312500   0.312500   0.062500     0.00390625
      146           0.312500   0.312500   0.187500     0.00390625
      147           0.312500   0.312500   0.312500     0.00390625
      148           0.312500   0.312500   0.437500     0.00390625
      149           0.312500   0.312500   0.562500     0.00390625
      150           0.312500   0.312500   0.687500     0.00390625
      151           0.312500   0.312500   0.812500     0.00390625
      152           0.312500   0.312500   0.937500     0.00390625
      153           0.312500   0.437500   0.062500     0.00390625
      154           0.312500   0.437500   0.187500     0.00390625
      155           0.312500   0.437500   0.312500     0.00390625
      156           0.312500   0.437500   0.437500     0.00390625
      157           0.312500   0.437500   0.562500     0.00390625
      158           0.312500   0.437500   0.687500     0.00390625
      159           0.312500   0.437500   0.812500     0.00390625
      160           0.312500   0.437500   0.937500     0.00390625
      161           0.312500   0.562500   0.062500     0.00390625
      162           0.312500   0.562500   0.187500     0.00390625
      163           0.312500   0.562500   0.312500     0.00390625
      164           0.312500   0.562500   0.437500     0.00390625
      165           0.312500   0.562500   0.562500     0.00390625
      166           0.312500   0.562500   0.687500     0.00390625
      167           0.312500   0.562500   0.812500     0.00390625
      168           0.312500   0.562500   0.937500     0.00390625
      169           0.312500   0.687500   0.062500     0.00390625
      170           0.312500   0.687500   0.187500     0.00390625
      171           0.312500   0.687500   0.312500     0.00390625
      172           0.312500   0.687500   0.437500     0.00390625
      173           0.312500   0.687500   0.562500     0.00390625
      174           0.312500   0.687500   0.687500     0.00390625
      175           0.312500   0.687500   0.812500     0.00390625
      176           0.312500   0.687500   0.937500     0.00390625
      177           0.312500   0.812500   0.062500     0.00390625
      178           0.312500   0.812500   0.187500     0.00390625
      179           0.312500   0.812500   0.312500     0.00390625
      180           0.312500   0.812500   0.437500     0.00390625
      181           0.312500   0.812500   0.562500     0.00390625
      182           0.312500   0.812500   0.687500     0.00390625
      183           0.312500   0.812500   0.812500     0.00390625
      184           0.312500   0.812500   0.937500     0.00390625
      185           0.312500   0.937500   0.062500     0.00390625
      186           0.312500   0.937500   0.187500     0.00390625
      187           0.312500   0.937500   0.312500     0.00390625
      188           0.312500   0.937500   0.437500     0.00390625
      189           0.312500   0.937500   0.562500     0.00390625
      190           0.312500   0.937500   0.687500     0.00390625
      191           0.312500   0.937500   0.812500     0.00390625
      192           0.312500   0.937500   0.937500     0.00390625
      193           0.437500   0.062500   0.062500     0.00390625
      194           0.437500   0.062500   0.187500     0.00390625
      195           0.437500   0.062500   0.312500     0.00390625
      196           0.437500   0.062500   0.437500     0.00390625
      197           0.437500   0.062500   0.562500     0.00390625
      198           0.437500   0.062500   0.687500     0.00390625
      199           0.437500   0.062500   0.812500     0.00390625
      200           0.437500   0.062500   0.937500     0.00390625
      201           0.437500   0.187500   0.062500     0.00390625
      202           0.437500   0.187500   0.187500     0.00390625
      203           0.437500   0.187500   0.312500     0.00390625
      204           0.437500   0.187500   0.437500     0.00390625
      205           0.437500   0.187500   0.562500     0.00390625
      206           0.437500   0.187500   0.687500     0.00390625
      207           0.437500   0.187500   0.812500     0.00390625
      208           0.437500   0.187500   0.937500     0.00390625
      209           0.437500   0.312500   0.062500     0.00390625
      210           0.437500   0.312500   0.187500     0.00390625
      211           0.437500   0.312500   0.312500     0.00390625
      212           0.437500   0.312500   0.437500     0.00390625
      213           0.437500   0.312500   0.562500     0.00390625
      214           0.437500   0.312500   0.687500     0.00390625
      215           0.437500   0.312500   0.812500     0.00390625
      216           0.437500   0.312500   0.937500     0.00390625
      217           0.437500   0.437500   0.062500     0.00390625
      218           0.437500   0.437500   0.187500     0.00390625
      219           0.437500   0.437500   0.312500     0.00390625
      220           0.437500   0.437500   0.437500     0.00390625
      221           0.437500   0.437500   0.562500     0.00390625
      222           0.437500   0.437500   0.687500     0.00390625
      223           0.437500   0.437500   0.812500     0.00390625
      224           0.437500   0.437500   0.937500     0.00390625
      225           0.437500   0.562500   0.062500     0.00390625
      226           0.437500   0.562500   0.187500     0.00390625
      227           0.437500   0.562500   0.312500     0.00390625
      228           0.437500   0.562500   0.437500     0.00390625
      229           0.437500   0.562500   0.562500     0.00390625
      230           0.437500   0.562500   0.687500     0.00390625
      231           0.437500   0.562500   0.812500     0.00390625
      232           0.437500   0.562500   0.937500     0.00390625
      233           0.437500   0.687500   0.062500     0.00390625
      234           0.437500   0.687500   0.187500     0.00390625
      235           0.437500   0.687500   0.312500     0.00390625
      236           0.437500   0.687500   0.437500     0.00390625
      237           0.437500   0.687500   0.562500     0.00390625
      238           0.437500   0.687500   0.687500     0.00390625
      239           0.437500   0.687500   0.812500     0.00390625
      240           0.437500   0.687500   0.937500     0.00390625
      241           0.437500   0.812500   0.062500     0.00390625
      242           0.437500   0.812500   0.187500     0.00390625
      243           0.437500   0.812500   0.312500     0.00390625
      244           0.437500   0.812500   0.437500     0.00390625
      245           0.437500   0.812500   0.562500     0.00390625
      246           0.437500   0.812500   0.687500     0.00390625
      247           0.437500   0.812500   0.812500     0.00390625
      248           0.437500   0.812500   0.937500     0.00390625
      249           0.437500   0.937500   0.062500     0.00390625
      250           0.437500   0.937500   0.187500     0.00390625
      251           0.437500   0.937500   0.312500     0.00390625
      252           0.437500   0.937500   0.437500     0.00390625
      253           0.437500   0.937500   0.562500     0.00390625
      254           0.437500   0.937500   0.687500     0.00390625
      255           0.437500   0.937500   0.812500     0.00390625
      256           0.437500   0.937500   0.937500     0.00390625
--------------------------------------------------------------------------------


********************************************************************************
*  General input information                                                   *
********************************************************************************

  Species output for all configurations : 

--------------------------------------------------------------------------------
  Species    Type    Atomic    Atomic    Charge       Radii (Angs)     Library
                     Number     Mass       (e)     Cova   Ionic  VDW   Symbol
--------------------------------------------------------------------------------
    C        Core        6      12.01   0.000000   0.770  0.000  1.530          
--------------------------------------------------------------------------------


  Lattice summation method               =    Ewald          (3-D)
                                         =    Parry          (2-D)
                                         =    Saunders et al (1-D)
  Accuracy factor for lattice sums       =   12.000


  Analytic derivatives to be used

  Time limit = Infinity

  Maximum range for interatomic potentials =    100000.000000 Angstroms

  Brenner et al 2002 potential to be used with explicit splines for P


********************************************************************************
*  Output for configuration   1                                                *
********************************************************************************


  Components of energy : 

--------------------------------------------------------------------------------
  Interatomic potentials     =           0.00000000 eV    
  Brenner potentials         =         -58.93686649 eV    
  Monopole - monopole (real) =           0.00000000 eV    
  Monopole - monopole (recip)=           0.00000000 eV    
  Monopole - monopole (total)=           0.00000000 eV    
--------------------------------------------------------------------------------
  Total lattice energy       =         -58.93686649 eV    
--------------------------------------------------------------------------------
  Total lattice energy       =           -5686.5067 kJ/(mole unit cells)
--------------------------------------------------------------------------------


  Elastic Constant Matrix: (Units=GPa)

-------------------------------------------------------------------------------
  Indices      1         2         3         4         5         6    
-------------------------------------------------------------------------------
       1   1025.1901  106.5905  106.5905    0.0000    0.0000    0.0000
       2    106.5905 1025.1901  106.5905    0.0000    0.0000    0.0000
       3    106.5905  106.5905 1025.1901    0.0000    0.0000    0.0000
       4      0.0000    0.0000    0.0000  683.8934   -0.0000   -0.0000
       5      0.0000    0.0000    0.0000   -0.0000  683.8934   -0.0000
       6      0.0000    0.0000    0.0000   -0.0000   -0.0000  683.8934
-------------------------------------------------------------------------------


  Elastic Compliance Matrix: (Units=1/GPa)

-------------------------------------------------------------------------------
  Indices      1         2         3         4         5         6    
-------------------------------------------------------------------------------
       1    0.000995 -0.000094 -0.000094 -0.000000 -0.000000 -0.000000
       2   -0.000094  0.000995 -0.000094 -0.000000 -0.000000 -0.000000
       3   -0.000094 -0.000094  0.000995 -0.000000 -0.000000 -0.000000
       4   -0.000000 -0.000000 -0.000000  0.001462  0.000000  0.000000
       5   -0.000000 -0.000000 -0.000000  0.000000  0.001462  0.000000
       6   -0.000000 -0.000000 -0.000000  0.000000  0.000000  0.001462
-------------------------------------------------------------------------------

  Mechanical properties :

-------------------------------------------------------------------------------
  Convention :                    Reuss         Voigt         Hill
-------------------------------------------------------------------------------
  Bulk  Modulus (GPa)     =     412.79039     412.79039     412.79039
  Shear Modulus (GPa)     =     572.01016     594.05592     583.03304
-------------------------------------------------------------------------------
  Velocity S-wave (km/s)  =      12.86766      13.11329      12.99106
  Velocity P-wave (km/s)  =      18.44606      18.67528      18.56102
-------------------------------------------------------------------------------
  Compressibility (1/GPa) =    0.00242254
-------------------------------------------------------------------------------
  Stress axis :                     x             y             z
-------------------------------------------------------------------------------
  Youngs Moduli (GPa)     =    1005.11279    1005.11279    1005.11279
-------------------------------------------------------------------------------
  Poissons Ratio (x)      =                     0.09418       0.09418
  Poissons Ratio (y)      =       0.09418                     0.09418
  Poissons Ratio (z)      =       0.09418       0.09418
-------------------------------------------------------------------------------


  Piezoelectric Strain Matrix: (Units=C/m**2)

-------------------------------------------------------------------------------
  Indices      1         2         3         4         5         6    
-------------------------------------------------------------------------------
       x    -0.00000  -0.00000  -0.00000  -0.00000  -0.00000  -0.00000
       y    -0.00000  -0.00000  -0.00000  -0.00000  -0.00000  -0.00000
       z    -0.00000  -0.00000  -0.00000  -0.00000  -0.00000  -0.00000
-------------------------------------------------------------------------------


  Piezoelectric Stress Matrix: (Units=10**-11 C/N)

-------------------------------------------------------------------------------
  Indices      1         2         3         4         5         6    
-------------------------------------------------------------------------------
       x     0.00000   0.00000   0.00000   0.00000   0.00000   0.00000
       y     0.00000   0.00000   0.00000   0.00000   0.00000   0.00000
       z     0.00000   0.00000   0.00000   0.00000   0.00000   0.00000
-------------------------------------------------------------------------------


  Static dielectric constant tensor : 

-------------------------------------------------------------------------------
              x         y         z
-------------------------------------------------------------------------------
       x     1.00000   0.00000   0.00000
       y     0.00000   1.00000   0.00000
       z     0.00000   0.00000   1.00000
--------------------------------------------------------------------------------

  Static refractive indices : 

-------------------------------------------------------------------------------
    1 =    1.00000      2 =    1.00000      3 =    1.00000
-------------------------------------------------------------------------------


  Phonon Calculation : 

  Number of k points for this configuration =      256

--------------------------------------------------------------------------------
  K point      1 =   0.062500  0.062500  0.062500  Weight =    0.004
--------------------------------------------------------------------------------

  Frequencies (cm-1) [NB: Negative implies an imaginary mode]:

  124.74  124.74  195.66 1037.81 1037.81 1037.81 1049.55 1049.55 1049.55
 1186.51 1186.51 1186.51 1227.29 1227.29 1227.29 1255.00 1255.00 1255.00
 1320.85 1320.85 1320.85 1530.83 1530.83 1535.22


--------------------------------------------------------------------------------
  K point      2 =   0.062500  0.062500  0.187500  Weight =    0.004
--------------------------------------------------------------------------------

  Frequencies (cm-1) [NB: Negative implies an imaginary mode]:

  244.55  260.21  351.17  949.44  957.54 1030.17 1030.17 1063.04 1063.04
 1106.41 1141.99 1141.99 1214.00 1214.00 1287.07 1287.07 1290.27 1297.45
 1336.61 1336.61 1386.65 1518.74 1519.33 1531.77


--------------------------------------------------------------------------------
  K point      3 =   0.062500  0.062500  0.312500  Weight =    0.004
--------------------------------------------------------------------------------

  Frequencies (cm-1) [NB: Negative implies an imaginary mode]:

  400.23  410.96  521.08  832.53  837.47  984.49 1029.41 1029.41 1075.48
 1075.48 1100.40 1100.40 1192.45 1192.45 1316.76 1316.76 1352.52 1352.52
 1357.05 1361.57 1439.30 1496.23 1496.24 1522.10


--------------------------------------------------------------------------------
  K point      4 =   0.062500  0.062500  0.437500  Weight =    0.004
--------------------------------------------------------------------------------

  Frequencies (cm-1) [NB: Negative implies an imaginary mode]:

  555.13  559.52  687.41  701.13  702.04  843.36 1037.25 1037.25 1065.49
 1065.49 1087.70 1087.70 1177.80 1177.80 1333.30 1333.30 1361.32 1361.32
 1414.88 1417.64 1461.43 1462.64 1478.07 1504.89


--------------------------------------------------------------------------------
  K point      5 =   0.062500  0.062500  0.562500  Weight =    0.004
--------------------------------------------------------------------------------

  Frequencies (cm-1) [NB: Negative implies an imaginary mode]:

  555.13  559.52  687.41  701.13  702.04  843.36 1037.25 1037.25 1065.49
 1065.49 1087.70 1087.70 1177.80 1177.80 1333.30 1333.30 1361.32 1361.32
 1414.88 1417.64 1461.43 1462.64 1478.07 1504.89


--------------------------------------------------------------------------------
  K point      6 =   0.062500  0.062500  0.687500  Weight =    0.004
--------------------------------------------------------------------------------

  Frequencies (cm-1) [NB: Negative implies an imaginary mode]:

  400.23  410.96  521.08  832.53  837.47  984.49 1029.41 1029.41 1075.48
 1075.48 1100.40 1100.40 1192.45 1192.45 1316.76 1316.76 1352.52 1352.52
 1357.05 1361.57 1439.30 1496.23 1496.24 1522.10


--------------------------------------------------------------------------------
  K point      7 =   0.062500  0.062500  0.812500  Weight =    0.004
--------------------------------------------------------------------------------

  Frequencies (cm-1) [NB: Negative implies an imaginary mode]:

  244.55  260.21  351.17  949.44  957.54 1030.17 1030.17 1063.04 1063.04
 1106.41 1141.99 1141.99 1214.00 1214.00 1287.07 1287.07 1290.27 1297.45
 1336.61 1336.61 1386.65 1518.74 1519.33 1531.77


--------------------------------------------------------------------------------
  K point      8 =   0.062500  0.062500  0.937500  Weight =    0.004
--------------------------------------------------------------------------------

  Frequencies (cm-1) [NB: Negative implies an imaginary mode]:

  124.74  124.74  195.66 1037.81 1037.81 1037.81 1049.55 1049.55 1049.55
 1186.51 1186.51 1186.51 1227.29 1227.29 1227.29 1255.00 1255.00 1255.00
 1320.85 1320.85 1320.85 1530.83 1530.83 1535.22


--------------------------------------------------------------------------------
  K point      9 =   0.062500  0.187500  0.062500  Weight =    0.004
--------------------------------------------------------------------------------

  Frequencies (cm-1) [NB: Negative implies an imaginary mode]:

  244.55  260.21  351.17  949.44  957.54 1030.17 1030.17 1063.04 1063.04
 1106.41 1141.99 1141.99 1214.00 1214.00 1287.07 1287.07 1290.27 1297.45
 1336.61 1336.61 1386.65 1518.74 1519.33 1531.77


--------------------------------------------------------------------------------
  K point     10 =   0.062500  0.187500  0.187500  Weight =    0.004
--------------------------------------------------------------------------------

  Frequencies (cm-1) [NB: Negative implies an imaginary mode]:

  292.85  342.72  468.93  947.39  947.39  971.62  971.62  996.20 1082.03
 1084.13 1084.13 1115.79 1244.15 1260.37 1284.14 1284.14 1320.90 1320.90
 1363.89 1382.10 1382.10 1504.79 1508.78 1529.55


--------------------------------------------------------------------------------
  K point     11 =   0.062500  0.187500  0.312500  Weight =    0.004
--------------------------------------------------------------------------------

  Frequencies (cm-1) [NB: Negative implies an imaginary mode]:

  408.43  466.99  607.96  829.38  857.64  948.37  968.97  990.17  990.71
 1063.97 1066.03 1102.50 1234.78 1271.36 1290.20 1348.76 1350.03 1372.08
 1373.47 1382.30 1429.37 1481.45 1488.31 1519.21


--------------------------------------------------------------------------------
  K point     12 =   0.062500  0.187500  0.437500  Weight =    0.004
--------------------------------------------------------------------------------

  Frequencies (cm-1) [NB: Negative implies an imaginary mode]:

  549.62  600.82  693.61  732.85  746.27  875.41  949.02  953.49 1012.99
 1038.25 1064.38 1083.27 1239.50 1254.97 1323.56 1348.49 1378.40 1387.08
 1405.09 1419.33 1448.67 1458.27 1469.12 1499.21


--------------------------------------------------------------------------------
  K point     13 =   0.062500  0.187500  0.562500  Weight =    0.004
--------------------------------------------------------------------------------

  Frequencies (cm-1) [NB: Negative implies an imaginary mode]:

  549.62  600.82  693.61  732.85  746.27  875.41  949.02  953.49 1012.99
 1038.25 1064.38 1083.27 1239.50 1254.97 1323.56 1348.49 1378.40 1387.08
 1405.09 1419.33 1448.67 1458.27 1469.12 1499.21


--------------------------------------------------------------------------------
  K point     14 =   0.062500  0.187500  0.687500  Weight =    0.004
--------------------------------------------------------------------------------

  Frequencies (cm-1) [NB: Negative implies an imaginary mode]:

  408.43  466.99  607.96  829.38  857.64  948.37  968.97  990.17  990.71
 1063.97 1066.03 1102.50 1234.78 1271.36 1290.20 1348.76 1350.03 1372.08
 1373.47 1382.30 1429.37 1481.45 1488.31 1519.21


--------------------------------------------------------------------------------
  K point     15 =   0.062500  0.187500  0.812500  Weight =    0.004
--------------------------------------------------------------------------------

  Frequencies (cm-1) [NB: Negative implies an imaginary mode]:

  292.85  342.72  468.93  947.39  947.39  971.62  971.62  996.20 1082.03
 1084.13 1084.13 1115.79 1244.15 1260.37 1284.14 1284.14 1320.90 1320.90
 1363.89 1382.10 1382.10 1504.79 1508.78 1529.55


--------------------------------------------------------------------------------
  K point     16 =   0.062500  0.187500  0.937500  Weight =    0.004
--------------------------------------------------------------------------------

  Frequencies (cm-1) [NB: Negative implies an imaginary mode]:

  244.55  260.21  351.17  949.44  957.54 1030.17 1030.17 1063.04 1063.04
 1106.41 1141.99 1141.99 1214.00 1214.00 1287.07 1287.07 1290.27 1297.45
 1336.61 1336.61 1386.65 1518.74 1519.33 1531.77


--------------------------------------------------------------------------------
  K point     17 =   0.062500  0.312500  0.062500  Weight =    0.004
--------------------------------------------------------------------------------

  Frequencies (cm-1) [NB: Negative implies an imaginary mode]:

  400.23  410.96  521.08  832.53  837.47  984.49 1029.41 1029.41 1075.48
 1075.48 1100.40 1100.40 1192.45 1192.45 1316.76 1316.76 1352.52 1352.52
 1357.05 1361.57 1439.30 1496.23 1496.24 1522.10


--------------------------------------------------------------------------------
  K point     18 =   0.062500  0.312500  0.187500  Weight =    0.004
--------------------------------------------------------------------------------

  Frequencies (cm-1) [NB: Negative implies an imaginary mode]:

  408.43  466.99  607.96  829.38  857.64  948.37  968.97  990.17  990.71
 1063.97 1066.03 1102.50 1234.78 1271.36 1290.20 1348.76 1350.03 1372.08
 1373.47 1382.30 1429.37 1481.45 1488.31 1519.21


--------------------------------------------------------------------------------
  K point     19 =   0.062500  0.312500  0.312500  Weight =    0.004
--------------------------------------------------------------------------------

  Frequencies (cm-1) [NB: Negative implies an imaginary mode]:

  469.98  563.12  715.34  828.41  828.41  895.62  895.62  911.43 1002.39
 1002.39 1032.80 1085.85 1281.17 1292.28 1336.47 1336.47 1387.93 1387.93
 1401.23 1409.28 1409.28 1457.46 1472.66 1507.57


--------------------------------------------------------------------------------
  K point     20 =   0.062500  0.312500  0.437500  Weight =    0.004
--------------------------------------------------------------------------------

  Frequencies (cm-1) [NB: Negative implies an imaginary mode]:

  574.65  674.91  699.51  788.57  822.34  838.81  866.39  919.93  943.93
  992.35 1022.52 1052.10 1298.28 1318.14 1338.32 1378.80 1386.86 1401.70
 1407.35 1421.35 1426.20 1449.92 1450.43 1484.62


--------------------------------------------------------------------------------
  K point     21 =   0.062500  0.312500  0.562500  Weight =    0.004
--------------------------------------------------------------------------------

  Frequencies (cm-1) [NB: Negative implies an imaginary mode]:

  574.65  674.91  699.51  788.57  822.34  838.81  866.39  919.93  943.93
  992.35 1022.52 1052.10 1298.28 1318.14 1338.32 1378.80 1386.86 1401.70
 1407.35 1421.35 1426.20 1449.92 1450.43 1484.62


--------------------------------------------------------------------------------
  K point     22 =   0.062500  0.312500  0.687500  Weight =    0.004
--------------------------------------------------------------------------------

  Frequencies (cm-1) [NB: Negative implies an imaginary mode]:

  469.98  563.12  715.34  828.41  828.41  895.62  895.62  911.43 1002.39
 1002.39 1032.80 1085.85 1281.17 1292.28 1336.47 1336.47 1387.93 1387.93
 1401.23 1409.28 1409.28 1457.46 1472.66 1507.57


--------------------------------------------------------------------------------
  K point     23 =   0.062500  0.312500  0.812500  Weight =    0.004
--------------------------------------------------------------------------------

  Frequencies (cm-1) [NB: Negative implies an imaginary mode]:

  408.43  466.99  607.96  829.38  857.64  948.37  968.97  990.17  990.71
 1063.97 1066.03 1102.50 1234.78 1271.36 1290.20 1348.76 1350.03 1372.08
 1373.47 1382.30 1429.37 1481.45 1488.31 1519.21


--------------------------------------------------------------------------------
  K point     24 =   0.062500  0.312500  0.937500  Weight =    0.004
--------------------------------------------------------------------------------

  Frequencies (cm-1) [NB: Negative implies an imaginary mode]:

  400.23  410.96  521.08  832.53  837.47  984.49 1029.41 1029.41 1075.48
 1075.48 1100.40 1100.40 1192.45 1192.45 1316.76 1316.76 1352.52 1352.52
 1357.05 1361.57 1439.30 1496.23 1496.24 1522.10


--------------------------------------------------------------------------------
  K point     25 =   0.062500  0.437500  0.062500  Weight =    0.004
--------------------------------------------------------------------------------

  Frequencies (cm-1) [NB: Negative implies an imaginary mode]:

  555.13  559.52  687.41  701.13  702.04  843.36 1037.25 1037.25 1065.49
 1065.49 1087.70 1087.70 1177.80 1177.80 1333.30 1333.30 1361.32 1361.32
 1414.88 1417.64 1461.43 1462.64 1478.07 1504.89


--------------------------------------------------------------------------------
  K point     26 =   0.062500  0.437500  0.187500  Weight =    0.004
--------------------------------------------------------------------------------

  Frequencies (cm-1) [NB: Negative implies an imaginary mode]:

  549.62  600.82  693.61  732.85  746.27  875.41  949.02  953.49 1012.99
 1038.25 1064.38 1083.27 1239.50 1254.97 1323.56 1348.49 1378.40 1387.08
 1405.09 1419.33 1448.67 1458.27 1469.12 1499.21


--------------------------------------------------------------------------------
  K point     27 =   0.062500  0.437500  0.312500  Weight =    0.004
--------------------------------------------------------------------------------

  Frequencies (cm-1) [NB: Negative implies an imaginary mode]:

  574.65  674.91  699.51  788.57  822.34  838.81  866.39  919.93  943.93
  992.35 1022.52 1052.10 1298.28 1318.14 1338.32 1378.80 1386.86 1401.70
 1407.35 1421.35 1426.20 1449.92 1450.43 1484.62


--------------------------------------------------------------------------------
  K point     28 =   0.062500  0.437500  0.437500  Weight =    0.004
--------------------------------------------------------------------------------

  Frequencies (cm-1) [NB: Negative implies an imaginary mode]:

  638.58  731.20  731.20  765.04  789.05  858.19  858.19  898.06  929.95
  966.07  966.07 1010.58 1335.06 1362.82 1362.82 1377.63 1397.35 1415.02
 1415.02 1419.50 1427.02 1427.02 1436.70 1459.19


--------------------------------------------------------------------------------
  K point     29 =   0.062500  0.437500  0.562500  Weight =    0.004
--------------------------------------------------------------------------------

  Frequencies (cm-1) [NB: Negative implies an imaginary mode]:

  638.58  731.20  731.20  765.04  789.05  858.19  858.19  898.06  929.95
  966.07  966.07 1010.58 1335.06 1362.82 1362.82 1377.63 1397.35 1415.02
 1415.02 1419.50 1427.02 1427.02 1436.70 1459.19


--------------------------------------------------------------------------------
  K point     30 =   0.062500  0.437500  0.687500  Weight =    0.004
--------------------------------------------------------------------------------

  Frequencies (cm-1) [NB: Negative implies an imaginary mode]:

  574.65  674.91  699.51  788.57  822.34  838.81  866.39  919.93  943.93
  992.35 1022.52 1052.10 1298.28 1318.14 1338.32 1378.80 1386.86 1401.70
 1407.35 1421.35 1426.20 1449.92 1450.43 1484.62


--------------------------------------------------------------------------------
  K point     31 =   0.062500  0.437500  0.812500  Weight =    0.004
--------------------------------------------------------------------------------

  Frequencies (cm-1) [NB: Negative implies an imaginary mode]:

  549.62  600.82  693.61  732.85  746.27  875.41  949.02  953.49 1012.99
 1038.25 1064.38 1083.27 1239.50 1254.97 1323.56 1348.49 1378.40 1387.08
 1405.09 1419.33 1448.67 1458.27 1469.12 1499.21


--------------------------------------------------------------------------------
  K point     32 =   0.062500  0.437500  0.937500  Weight =    0.004
--------------------------------------------------------------------------------

  Frequencies (cm-1) [NB: Negative implies an imaginary mode]:

  555.13  559.52  687.41  701.13  702.04  843.36 1037.25 1037.25 1065.49
 1065.49 1087.70 1087.70 1177.80 1177.80 1333.30 1333.30 1361.32 1361.32
 1414.88 1417.64 1461.43 1462.64 1478.07 1504.89


--------------------------------------------------------------------------------
  K point     33 =   0.062500  0.562500  0.062500  Weight =    0.004
--------------------------------------------------------------------------------

  Frequencies (cm-1) [NB: Negative implies an imaginary mode]:

  555.13  559.52  687.41  701.13  702.04  843.36 1037.25 1037.25 1065.49
 1065.49 1087.70 1087.70 1177.80 1177.80 1333.30 1333.30 1361.32 1361.32
 1414.88 1417.64 1461.43 1462.64 1478.07 1504.89


--------------------------------------------------------------------------------
  K point     34 =   0.062500  0.562500  0.187500  Weight =    0.004
--------------------------------------------------------------------------------

  Frequencies (cm-1) [NB: Negative implies an imaginary mode]:

  549.62  600.82  693.61  732.85  746.27  875.41  949.02  953.49 1012.99
 1038.25 1064.38 1083.27 1239.50 1254.97 1323.56 1348.49 1378.40 1387.08
 1405.09 1419.33 1448.67 1458.27 1469.12 1499.21


--------------------------------------------------------------------------------
  K point     35 =   0.062500  0.562500  0.312500  Weight =    0.004
--------------------------------------------------------------------------------

  Frequencies (cm-1) [NB: Negative implies an imaginary mode]:

  574.65  674.91  699.51  788.57  822.34  838.81  866.39  919.93  943.93
  992.35 1022.52 1052.10 1298.28 1318.14 1338.32 1378.80 1386.86 1401.70
 1407.35 1421.35 1426.20 1449.92 1450.43 1484.62


--------------------------------------------------------------------------------
  K point     36 =   0.062500  0.562500  0.437500  Weight =    0.004
--------------------------------------------------------------------------------

  Frequencies (cm-1) [NB: Negative implies an imaginary mode]:

  638.58  731.20  731.20  765.04  789.05  858.19  858.19  898.06  929.95
  966.07  966.07 1010.58 1335.06 1362.82 1362.82 1377.63 1397.35 1415.02
 1415.02 1419.50 1427.02 1427.02 1436.70 1459.19


--------------------------------------------------------------------------------
  K point     37 =   0.062500  0.562500  0.562500  Weight =    0.004
--------------------------------------------------------------------------------

  Frequencies (cm-1) [NB: Negative implies an imaginary mode]:

  638.58  731.20  731.20  765.04  789.05  858.19  858.19  898.06  929.95
  966.07  966.07 1010.58 1335.06 1362.82 1362.82 1377.63 1397.35 1415.02
 1415.02 1419.50 1427.02 1427.02 1436.70 1459.19


--------------------------------------------------------------------------------
  K point     38 =   0.062500  0.562500  0.687500  Weight =    0.004
--------------------------------------------------------------------------------

  Frequencies (cm-1) [NB: Negative implies an imaginary mode]:

  574.65  674.91  699.51  788.57  822.34  838.81  866.39  919.93  943.93
  992.35 1022.52 1052.10 1298.28 1318.14 1338.32 1378.80 1386.86 1401.70
 1407.35 1421.35 1426.20 1449.92 1450.43 1484.62


--------------------------------------------------------------------------------
  K point     39 =   0.062500  0.562500  0.812500  Weight =    0.004
--------------------------------------------------------------------------------

  Frequencies (cm-1) [NB: Negative implies an imaginary mode]:

  549.62  600.82  693.61  732.85  746.27  875.41  949.02  953.49 1012.99
 1038.25 1064.38 1083.27 1239.50 1254.97 1323.56 1348.49 1378.40 1387.08
 1405.09 1419.33 1448.67 1458.27 1469.12 1499.21


--------------------------------------------------------------------------------
  K point     40 =   0.062500  0.562500  0.937500  Weight =    0.004
--------------------------------------------------------------------------------

  Frequencies (cm-1) [NB: Negative implies an imaginary mode]:

  555.13  559.52  687.41  701.13  702.04  843.36 1037.25 1037.25 1065.49
 1065.49 1087.70 1087.70 1177.80 1177.80 1333.30 1333.30 1361.32 1361.32
 1414.88 1417.64 1461.43 1462.64 1478.07 1504.89


--------------------------------------------------------------------------------
  K point     41 =   0.062500  0.687500  0.062500  Weight =    0.004
--------------------------------------------------------------------------------

  Frequencies (cm-1) [NB: Negative implies an imaginary mode]:

  400.23  410.96  521.08  832.53  837.47  984.49 1029.41 1029.41 1075.48
 1075.48 1100.40 1100.40 1192.45 1192.45 1316.76 1316.76 1352.52 1352.52
 1357.05 1361.57 1439.30 1496.23 1496.24 1522.10


--------------------------------------------------------------------------------
  K point     42 =   0.062500  0.687500  0.187500  Weight =    0.004
--------------------------------------------------------------------------------

  Frequencies (cm-1) [NB: Negative implies an imaginary mode]:

  408.43  466.99  607.96  829.38  857.64  948.37  968.97  990.17  990.71
 1063.97 1066.03 1102.50 1234.78 1271.36 1290.20 1348.76 1350.03 1372.08
 1373.47 1382.30 1429.37 1481.45 1488.31 1519.21


--------------------------------------------------------------------------------
  K point     43 =   0.062500  0.687500  0.312500  Weight =    0.004
--------------------------------------------------------------------------------

  Frequencies (cm-1) [NB: Negative implies an imaginary mode]:

  469.98  563.12  715.34  828.41  828.41  895.62  895.62  911.43 1002.39
 1002.39 1032.80 1085.85 1281.17 1292.28 1336.47 1336.47 1387.93 1387.93
 1401.23 1409.28 1409.28 1457.46 1472.66 1507.57


--------------------------------------------------------------------------------
  K point     44 =   0.062500  0.687500  0.437500  Weight =    0.004
--------------------------------------------------------------------------------

  Frequencies (cm-1) [NB: Negative implies an imaginary mode]:

  574.65  674.91  699.51  788.57  822.34  838.81  866.39  919.93  943.93
  992.35 1022.52 1052.10 1298.28 1318.14 1338.32 1378.80 1386.86 1401.70
 1407.35 1421.35 1426.20 1449.92 1450.43 1484.62


--------------------------------------------------------------------------------
  K point     45 =   0.062500  0.687500  0.562500  Weight =    0.004
--------------------------------------------------------------------------------

  Frequencies (cm-1) [NB: Negative implies an imaginary mode]:

  574.65  674.91  699.51  788.57  822.34  838.81  866.39  919.93  943.93
  992.35 1022.52 1052.10 1298.28 1318.14 1338.32 1378.80 1386.86 1401.70
 1407.35 1421.35 1426.20 1449.92 1450.43 1484.62


--------------------------------------------------------------------------------
  K point     46 =   0.062500  0.687500  0.687500  Weight =    0.004
--------------------------------------------------------------------------------

  Frequencies (cm-1) [NB: Negative implies an imaginary mode]:

  469.98  563.12  715.34  828.41  828.41  895.62  895.62  911.43 1002.39
 1002.39 1032.80 1085.85 1281.17 1292.28 1336.47 1336.47 1387.93 1387.93
 1401.23 1409.28 1409.28 1457.46 1472.66 1507.57


--------------------------------------------------------------------------------
  K point     47 =   0.062500  0.687500  0.812500  Weight =    0.004
--------------------------------------------------------------------------------

  Frequencies (cm-1) [NB: Negative implies an imaginary mode]:

  408.43  466.99  607.96  829.38  857.64  948.37  968.97  990.17  990.71
 1063.97 1066.03 1102.50 1234.78 1271.36 1290.20 1348.76 1350.03 1372.08
 1373.47 1382.30 1429.37 1481.45 1488.31 1519.21


--------------------------------------------------------------------------------
  K point     48 =   0.062500  0.687500  0.937500  Weight =    0.004
--------------------------------------------------------------------------------

  Frequencies (cm-1) [NB: Negative implies an imaginary mode]:

  400.23  410.96  521.08  832.53  837.47  984.49 1029.41 1029.41 1075.48
 1075.48 1100.40 1100.40 1192.45 1192.45 1316.76 1316.76 1352.52 1352.52
 1357.05 1361.57 1439.30 1496.23 1496.24 1522.10


--------------------------------------------------------------------------------
  K point     49 =   0.062500  0.812500  0.062500  Weight =    0.004
--------------------------------------------------------------------------------

  Frequencies (cm-1) [NB: Negative implies an imaginary mode]:

  244.55  260.21  351.17  949.44  957.54 1030.17 1030.17 1063.04 1063.04
 1106.41 1141.99 1141.99 1214.00 1214.00 1287.07 1287.07 1290.27 1297.45
 1336.61 1336.61 1386.65 1518.74 1519.33 1531.77


--------------------------------------------------------------------------------
  K point     50 =   0.062500  0.812500  0.187500  Weight =    0.004
--------------------------------------------------------------------------------

  Frequencies (cm-1) [NB: Negative implies an imaginary mode]:

  292.85  342.72  468.93  947.39  947.39  971.62  971.62  996.20 1082.03
 1084.13 1084.13 1115.79 1244.15 1260.37 1284.14 1284.14 1320.90 1320.90
 1363.89 1382.10 1382.10 1504.79 1508.78 1529.55


--------------------------------------------------------------------------------
  K point     51 =   0.062500  0.812500  0.312500  Weight =    0.004
--------------------------------------------------------------------------------

  Frequencies (cm-1) [NB: Negative implies an imaginary mode]:

  408.43  466.99  607.96  829.38  857.64  948.37  968.97  990.17  990.71
 1063.97 1066.03 1102.50 1234.78 1271.36 1290.20 1348.76 1350.03 1372.08
 1373.47 1382.30 1429.37 1481.45 1488.31 1519.21


--------------------------------------------------------------------------------
  K point     52 =   0.062500  0.812500  0.437500  Weight =    0.004
--------------------------------------------------------------------------------

  Frequencies (cm-1) [NB: Negative implies an imaginary mode]:

  549.62  600.82  693.61  732.85  746.27  875.41  949.02  953.49 1012.99
 1038.25 1064.38 1083.27 1239.50 1254.97 1323.56 1348.49 1378.40 1387.08
 1405.09 1419.33 1448.67 1458.27 1469.12 1499.21


--------------------------------------------------------------------------------
  K point     53 =   0.062500  0.812500  0.562500  Weight =    0.004
--------------------------------------------------------------------------------

  Frequencies (cm-1) [NB: Negative implies an imaginary mode]:

  549.62  600.82  693.61  732.85  746.27  875.41  949.02  953.49 1012.99
 1038.25 1064.38 1083.27 1239.50 1254.97 1323.56 1348.49 1378.40 1387.08
 1405.09 1419.33 1448.67 1458.27 1469.12 1499.21


--------------------------------------------------------------------------------
  K point     54 =   0.062500  0.812500  0.687500  Weight =    0.004
--------------------------------------------------------------------------------

  Frequencies (cm-1) [NB: Negative implies an imaginary mode]:

  408.43  466.99  607.96  829.38  857.64  948.37  968.97  990.17  990.71
 1063.97 1066.03 1102.50 1234.78 1271.36 1290.20 1348.76 1350.03 1372.08
 1373.47 1382.30 1429.37 1481.45 1488.31 1519.21


--------------------------------------------------------------------------------
  K point     55 =   0.062500  0.812500  0.812500  Weight =    0.004
--------------------------------------------------------------------------------

  Frequencies (cm-1) [NB: Negative implies an imaginary mode]:

  292.85  342.72  468.93  947.39  947.39  971.62  971.62  996.20 1082.03
 1084.13 1084.13 1115.79 1244.15 1260.37 1284.14 1284.14 1320.90 1320.90
 1363.89 1382.10 1382.10 1504.79 1508.78 1529.55


--------------------------------------------------------------------------------
  K point     56 =   0.062500  0.812500  0.937500  Weight =    0.004
--------------------------------------------------------------------------------

  Frequencies (cm-1) [NB: Negative implies an imaginary mode]:

  244.55  260.21  351.17  949.44  957.54 1030.17 1030.17 1063.04 1063.04
 1106.41 1141.99 1141.99 1214.00 1214.00 1287.07 1287.07 1290.27 1297.45
 1336.61 1336.61 1386.65 1518.74 1519.33 1531.77


--------------------------------------------------------------------------------
  K point     57 =   0.062500  0.937500  0.062500  Weight =    0.004
--------------------------------------------------------------------------------

  Frequencies (cm-1) [NB: Negative implies an imaginary mode]:

  124.74  124.74  195.66 1037.81 1037.81 1037.81 1049.55 1049.55 1049.55
 1186.51 1186.51 1186.51 1227.29 1227.29 1227.29 1255.00 1255.00 1255.00
 1320.85 1320.85 1320.85 1530.83 1530.83 1535.22


--------------------------------------------------------------------------------
  K point     58 =   0.062500  0.937500  0.187500  Weight =    0.004
--------------------------------------------------------------------------------

  Frequencies (cm-1) [NB: Negative implies an imaginary mode]:

  244.55  260.21  351.17  949.44  957.54 1030.17 1030.17 1063.04 1063.04
 1106.41 1141.99 1141.99 1214.00 1214.00 1287.07 1287.07 1290.27 1297.45
 1336.61 1336.61 1386.65 1518.74 1519.33 1531.77


--------------------------------------------------------------------------------
  K point     59 =   0.062500  0.937500  0.312500  Weight =    0.004
--------------------------------------------------------------------------------

  Frequencies (cm-1) [NB: Negative implies an imaginary mode]:

  400.23  410.96  521.08  832.53  837.47  984.49 1029.41 1029.41 1075.48
 1075.48 1100.40 1100.40 1192.45 1192.45 1316.76 1316.76 1352.52 1352.52
 1357.05 1361.57 1439.30 1496.23 1496.24 1522.10


--------------------------------------------------------------------------------
  K point     60 =   0.062500  0.937500  0.437500  Weight =    0.004
--------------------------------------------------------------------------------

  Frequencies (cm-1) [NB: Negative implies an imaginary mode]:

  555.13  559.52  687.41  701.13  702.04  843.36 1037.25 1037.25 1065.49
 1065.49 1087.70 1087.70 1177.80 1177.80 1333.30 1333.30 1361.32 1361.32
 1414.88 1417.64 1461.43 1462.64 1478.07 1504.89


--------------------------------------------------------------------------------
  K point     61 =   0.062500  0.937500  0.562500  Weight =    0.004
--------------------------------------------------------------------------------

  Frequencies (cm-1) [NB: Negative implies an imaginary mode]:

  555.13  559.52  687.41  701.13  702.04  843.36 1037.25 1037.25 1065.49
 1065.49 1087.70 1087.70 1177.80 1177.80 1333.30 1333.30 1361.32 1361.32
 1414.88 1417.64 1461.43 1462.64 1478.07 1504.89


--------------------------------------------------------------------------------
  K point     62 =   0.062500  0.937500  0.687500  Weight =    0.004
--------------------------------------------------------------------------------

  Frequencies (cm-1) [NB: Negative implies an imaginary mode]:

  400.23  410.96  521.08  832.53  837.47  984.49 1029.41 1029.41 1075.48
 1075.48 1100.40 1100.40 1192.45 1192.45 1316.76 1316.76 1352.52 1352.52
 1357.05 1361.57 1439.30 1496.23 1496.24 1522.10


--------------------------------------------------------------------------------
  K point     63 =   0.062500  0.937500  0.812500  Weight =    0.004
--------------------------------------------------------------------------------

  Frequencies (cm-1) [NB: Negative implies an imaginary mode]:

  244.55  260.21  351.17  949.44  957.54 1030.17 1030.17 1063.04 1063.04
 1106.41 1141.99 1141.99 1214.00 1214.00 1287.07 1287.07 1290.27 1297.45
 1336.61 1336.61 1386.65 1518.74 1519.33 1531.77


--------------------------------------------------------------------------------
  K point     64 =   0.062500  0.937500  0.937500  Weight =    0.004
--------------------------------------------------------------------------------

  Frequencies (cm-1) [NB: Negative implies an imaginary mode]:

  124.74  124.74  195.66 1037.81 1037.81 1037.81 1049.55 1049.55 1049.55
 1186.51 1186.51 1186.51 1227.29 1227.29 1227.29 1255.00 1255.00 1255.00
 1320.85 1320.85 1320.85 1530.83 1530.83 1535.22


--------------------------------------------------------------------------------
  K point     65 =   0.187500  0.062500  0.062500  Weight =    0.004
--------------------------------------------------------------------------------

  Frequencies (cm-1) [NB: Negative implies an imaginary mode]:

  244.55  260.21  351.17  949.44  957.54 1030.17 1030.17 1063.04 1063.04
 1106.41 1141.99 1141.99 1214.00 1214.00 1287.07 1287.07 1290.27 1297.45
 1336.61 1336.61 1386.65 1518.74 1519.33 1531.77


--------------------------------------------------------------------------------
  K point     66 =   0.187500  0.062500  0.187500  Weight =    0.004
--------------------------------------------------------------------------------

  Frequencies (cm-1) [NB: Negative implies an imaginary mode]:

  292.85  342.72  468.93  947.39  947.39  971.62  971.62  996.20 1082.03
 1084.13 1084.13 1115.79 1244.15 1260.37 1284.14 1284.14 1320.90 1320.90
 1363.89 1382.10 1382.10 1504.79 1508.78 1529.55


--------------------------------------------------------------------------------
  K point     67 =   0.187500  0.062500  0.312500  Weight =    0.004
--------------------------------------------------------------------------------

  Frequencies (cm-1) [NB: Negative implies an imaginary mode]:

  408.43  466.99  607.96  829.38  857.64  948.37  968.97  990.17  990.71
 1063.97 1066.03 1102.50 1234.78 1271.36 1290.20 1348.76 1350.03 1372.08
 1373.47 1382.30 1429.37 1481.45 1488.31 1519.21


--------------------------------------------------------------------------------
  K point     68 =   0.187500  0.062500  0.437500  Weight =    0.004
--------------------------------------------------------------------------------

  Frequencies (cm-1) [NB: Negative implies an imaginary mode]:

  549.62  600.82  693.61  732.85  746.27  875.41  949.02  953.49 1012.99
 1038.25 1064.38 1083.27 1239.50 1254.97 1323.56 1348.49 1378.40 1387.08
 1405.09 1419.33 1448.67 1458.27 1469.12 1499.21


--------------------------------------------------------------------------------
  K point     69 =   0.187500  0.062500  0.562500  Weight =    0.004
--------------------------------------------------------------------------------

  Frequencies (cm-1) [NB: Negative implies an imaginary mode]:

  549.62  600.82  693.61  732.85  746.27  875.41  949.02  953.49 1012.99
 1038.25 1064.38 1083.27 1239.50 1254.97 1323.56 1348.49 1378.40 1387.08
 1405.09 1419.33 1448.67 1458.27 1469.12 1499.21


--------------------------------------------------------------------------------
  K point     70 =   0.187500  0.062500  0.687500  Weight =    0.004
--------------------------------------------------------------------------------

  Frequencies (cm-1) [NB: Negative implies an imaginary mode]:

  408.43  466.99  607.96  829.38  857.64  948.37  968.97  990.17  990.71
 1063.97 1066.03 1102.50 1234.78 1271.36 1290.20 1348.76 1350.03 1372.08
 1373.47 1382.30 1429.37 1481.45 1488.31 1519.21


--------------------------------------------------------------------------------
  K point     71 =   0.187500  0.062500  0.812500  Weight =    0.004
--------------------------------------------------------------------------------

  Frequencies (cm-1) [NB: Negative implies an imaginary mode]:

  292.85  342.72  468.93  947.39  947.39  971.62  971.62  996.20 1082.03
 1084.13 1084.13 1115.79 1244.15 1260.37 1284.14 1284.14 1320.90 1320.90
 1363.89 1382.10 1382.10 1504.79 1508.78 1529.55


--------------------------------------------------------------------------------
  K point     72 =   0.187500  0.062500  0.937500  Weight =    0.004
--------------------------------------------------------------------------------

  Frequencies (cm-1) [NB: Negative implies an imaginary mode]:

  244.55  260.21  351.17  949.44  957.54 1030.17 1030.17 1063.04 1063.04
 1106.41 1141.99 1141.99 1214.00 1214.00 1287.07 1287.07 1290.27 1297.45
 1336.61 1336.61 1386.65 1518.74 1519.33 1531.77


--------------------------------------------------------------------------------
  K point     73 =   0.187500  0.187500  0.062500  Weight =    0.004
--------------------------------------------------------------------------------

  Frequencies (cm-1) [NB: Negative implies an imaginary mode]:

  292.85  342.72  468.93  947.39  947.39  971.62  971.62  996.20 1082.03
 1084.13 1084.13 1115.79 1244.15 1260.37 1284.14 1284.14 1320.90 1320.90
 1363.89 1382.10 1382.10 1504.79 1508.78 1529.55


--------------------------------------------------------------------------------
  K point     74 =   0.187500  0.187500  0.187500  Weight =    0.004
--------------------------------------------------------------------------------

  Frequencies (cm-1) [NB: Negative implies an imaginary mode]:

  363.98  363.98  567.12  927.86  927.86  927.86  980.62  980.62  980.62
 1079.46 1079.46 1079.46 1290.31 1290.31 1290.31 1322.44 1322.44 1322.44
 1385.43 1385.43 1385.43 1494.04 1494.04 1528.53


--------------------------------------------------------------------------------
  K point     75 =   0.187500  0.187500  0.312500  Weight =    0.004
--------------------------------------------------------------------------------

  Frequencies (cm-1) [NB: Negative implies an imaginary mode]:

  450.73  472.24  688.42  828.22  853.72  913.19  913.19  974.51  974.51
 1009.91 1081.72 1081.72 1286.86 1286.86 1336.04 1336.04 1346.53 1376.88
 1387.89 1387.89 1422.12 1472.17 1472.54 1518.71


--------------------------------------------------------------------------------
  K point     76 =   0.187500  0.187500  0.437500  Weight =    0.004
--------------------------------------------------------------------------------

  Frequencies (cm-1) [NB: Negative implies an imaginary mode]:

  576.62  592.99  714.07  715.81  808.64  906.30  906.30  917.78  964.47
  964.47 1087.15 1087.15 1281.25 1281.25 1349.16 1349.16 1387.68 1387.68
 1397.94 1415.11 1440.38 1445.75 1463.65 1497.23


--------------------------------------------------------------------------------
  K point     77 =   0.187500  0.187500  0.562500  Weight =    0.004
--------------------------------------------------------------------------------

  Frequencies (cm-1) [NB: Negative implies an imaginary mode]:

  576.62  592.99  714.07  715.81  808.64  906.30  906.30  917.78  964.47
  964.47 1087.15 1087.15 1281.25 1281.25 1349.16 1349.16 1387.68 1387.68
 1397.94 1415.11 1440.38 1445.75 1463.65 1497.23


--------------------------------------------------------------------------------
  K point     78 =   0.187500  0.187500  0.687500  Weight =    0.004
--------------------------------------------------------------------------------

  Frequencies (cm-1) [NB: Negative implies an imaginary mode]:

  450.73  472.24  688.42  828.22  853.72  913.19  913.19  974.51  974.51
 1009.91 1081.72 1081.72 1286.86 1286.86 1336.04 1336.04 1346.53 1376.88
 1387.89 1387.89 1422.12 1472.17 1472.54 1518.71


--------------------------------------------------------------------------------
  K point     79 =   0.187500  0.187500  0.812500  Weight =    0.004
--------------------------------------------------------------------------------

  Frequencies (cm-1) [NB: Negative implies an imaginary mode]:

  363.98  363.98  567.12  927.86  927.86  927.86  980.62  980.62  980.62
 1079.46 1079.46 1079.46 1290.31 1290.31 1290.31 1322.44 1322.44 1322.44
 1385.43 1385.43 1385.43 1494.04 1494.04 1528.53


--------------------------------------------------------------------------------
  K point     80 =   0.187500  0.187500  0.937500  Weight =    0.004
--------------------------------------------------------------------------------

  Frequencies (cm-1) [NB: Negative implies an imaginary mode]:

  292.85  342.72  468.93  947.39  947.39  971.62  971.62  996.20 1082.03
 1084.13 1084.13 1115.79 1244.15 1260.37 1284.14 1284.14 1320.90 1320.90
 1363.89 1382.10 1382.10 1504.79 1508.78 1529.55


--------------------------------------------------------------------------------
  K point     81 =   0.187500  0.312500  0.062500  Weight =    0.004
--------------------------------------------------------------------------------

  Frequencies (cm-1) [NB: Negative implies an imaginary mode]:

  408.43  466.99  607.96  829.38  857.64  948.37  968.97  990.17  990.71
 1063.97 1066.03 1102.50 1234.78 1271.36 1290.20 1348.76 1350.03 1372.08
 1373.47 1382.30 1429.37 1481.45 1488.31 1519.21


--------------------------------------------------------------------------------
  K point     82 =   0.187500  0.312500  0.187500  Weight =    0.004
--------------------------------------------------------------------------------

  Frequencies (cm-1) [NB: Negative implies an imaginary mode]:

  450.73  472.24  688.42  828.22  853.72  913.19  913.19  974.51  974.51
 1009.91 1081.72 1081.72 1286.86 1286.86 1336.04 1336.04 1346.53 1376.88
 1387.89 1387.89 1422.12 1472.17 1472.54 1518.71


--------------------------------------------------------------------------------
  K point     83 =   0.187500  0.312500  0.312500  Weight =    0.004
--------------------------------------------------------------------------------

  Frequencies (cm-1) [NB: Negative implies an imaginary mode]:

  505.81  547.06  789.12  821.98  821.98  863.81  863.81  872.58  946.15
 1038.00 1038.00 1092.22 1304.24 1337.94 1337.94 1338.51 1385.95 1385.95
 1397.52 1407.68 1407.68 1448.75 1454.89 1509.30


--------------------------------------------------------------------------------
  K point     84 =   0.187500  0.312500  0.437500  Weight =    0.004
--------------------------------------------------------------------------------

  Frequencies (cm-1) [NB: Negative implies an imaginary mode]:

  597.13  646.96  709.94  753.85  823.58  840.61  885.58  887.17  914.44
  972.13 1065.58 1085.90 1314.55 1326.11 1361.00 1382.89 1386.58 1395.06
 1399.75 1409.43 1419.68 1432.02 1451.45 1487.22


--------------------------------------------------------------------------------
  K point     85 =   0.187500  0.312500  0.562500  Weight =    0.004
--------------------------------------------------------------------------------

  Frequencies (cm-1) [NB: Negative implies an imaginary mode]:

  597.13  646.96  709.94  753.85  823.58  840.61  885.58  887.17  914.44
  972.13 1065.58 1085.90 1314.55 1326.11 1361.00 1382.89 1386.58 1395.06
 1399.75 1409.43 1419.68 1432.02 1451.45 1487.22


--------------------------------------------------------------------------------
  K point     86 =   0.187500  0.312500  0.687500  Weight =    0.004
--------------------------------------------------------------------------------

  Frequencies (cm-1) [NB: Negative implies an imaginary mode]:

  505.81  547.06  789.12  821.98  821.98  863.81  863.81  872.58  946.15
 1038.00 1038.00 1092.22 1304.24 1337.94 1337.94 1338.51 1385.95 1385.95
 1397.52 1407.68 1407.68 1448.75 1454.89 1509.30


--------------------------------------------------------------------------------
  K point     87 =   0.187500  0.312500  0.812500  Weight =    0.004
--------------------------------------------------------------------------------

  Frequencies (cm-1) [NB: Negative implies an imaginary mode]:

  450.73  472.24  688.42  828.22  853.72  913.19  913.19  974.51  974.51
 1009.91 1081.72 1081.72 1286.86 1286.86 1336.04 1336.04 1346.53 1376.88
 1387.89 1387.89 1422.12 1472.17 1472.54 1518.71


--------------------------------------------------------------------------------
  K point     88 =   0.187500  0.312500  0.937500  Weight =    0.004
--------------------------------------------------------------------------------

  Frequencies (cm-1) [NB: Negative implies an imaginary mode]:

  408.43  466.99  607.96  829.38  857.64  948.37  968.97  990.17  990.71
 1063.97 1066.03 1102.50 1234.78 1271.36 1290.20 1348.76 1350.03 1372.08
 1373.47 1382.30 1429.37 1481.45 1488.31 1519.21


--------------------------------------------------------------------------------
  K point     89 =   0.187500  0.437500  0.062500  Weight =    0.004
--------------------------------------------------------------------------------

  Frequencies (cm-1) [NB: Negative implies an imaginary mode]:

  549.62  600.82  693.61  732.85  746.27  875.41  949.02  953.49 1012.99
 1038.25 1064.38 1083.27 1239.50 1254.97 1323.56 1348.49 1378.40 1387.08
 1405.09 1419.33 1448.67 1458.27 1469.12 1499.21


--------------------------------------------------------------------------------
  K point     90 =   0.187500  0.437500  0.187500  Weight =    0.004
--------------------------------------------------------------------------------

  Frequencies (cm-1) [NB: Negative implies an imaginary mode]:

  576.62  592.99  714.07  715.81  808.64  906.30  906.30  917.78  964.47
  964.47 1087.15 1087.15 1281.25 1281.25 1349.16 1349.16 1387.68 1387.68
 1397.94 1415.11 1440.38 1445.75 1463.65 1497.23


--------------------------------------------------------------------------------
  K point     91 =   0.187500  0.437500  0.312500  Weight =    0.004
--------------------------------------------------------------------------------

  Frequencies (cm-1) [NB: Negative implies an imaginary mode]:

  597.13  646.96  709.94  753.85  823.58  840.61  885.58  887.17  914.44
  972.13 1065.58 1085.90 1314.55 1326.11 1361.00 1382.89 1386.58 1395.06
 1399.75 1409.43 1419.68 1432.02 1451.45 1487.22


--------------------------------------------------------------------------------
  K point     92 =   0.187500  0.437500  0.437500  Weight =    0.004
--------------------------------------------------------------------------------

  Frequencies (cm-1) [NB: Negative implies an imaginary mode]:

  649.94  722.50  730.85  730.85  777.21  804.39  804.39  859.93  961.83
 1023.06 1023.06 1062.88 1340.72 1362.90 1362.90 1383.64 1393.32 1400.69
 1400.69 1413.86 1416.16 1432.87 1432.87 1465.86


--------------------------------------------------------------------------------
  K point     93 =   0.187500  0.437500  0.562500  Weight =    0.004
--------------------------------------------------------------------------------

  Frequencies (cm-1) [NB: Negative implies an imaginary mode]:

  649.94  722.50  730.85  730.85  777.21  804.39  804.39  859.93  961.83
 1023.06 1023.06 1062.88 1340.72 1362.90 1362.90 1383.64 1393.32 1400.69
 1400.69 1413.86 1416.16 1432.87 1432.87 1465.86


--------------------------------------------------------------------------------
  K point     94 =   0.187500  0.437500  0.687500  Weight =    0.004
--------------------------------------------------------------------------------

  Frequencies (cm-1) [NB: Negative implies an imaginary mode]:

  597.13  646.96  709.94  753.85  823.58  840.61  885.58  887.17  914.44
  972.13 1065.58 1085.90 1314.55 1326.11 1361.00 1382.89 1386.58 1395.06
 1399.75 1409.43 1419.68 1432.02 1451.45 1487.22


--------------------------------------------------------------------------------
  K point     95 =   0.187500  0.437500  0.812500  Weight =    0.004
--------------------------------------------------------------------------------

  Frequencies (cm-1) [NB: Negative implies an imaginary mode]:

  576.62  592.99  714.07  715.81  808.64  906.30  906.30  917.78  964.47
  964.47 1087.15 1087.15 1281.25 1281.25 1349.16 1349.16 1387.68 1387.68
 1397.94 1415.11 1440.38 1445.75 1463.65 1497.23


--------------------------------------------------------------------------------
  K point     96 =   0.187500  0.437500  0.937500  Weight =    0.004
--------------------------------------------------------------------------------

  Frequencies (cm-1) [NB: Negative implies an imaginary mode]:

  549.62  600.82  693.61  732.85  746.27  875.41  949.02  953.49 1012.99
 1038.25 1064.38 1083.27 1239.50 1254.97 1323.56 1348.49 1378.40 1387.08
 1405.09 1419.33 1448.67 1458.27 1469.12 1499.21


--------------------------------------------------------------------------------
  K point     97 =   0.187500  0.562500  0.062500  Weight =    0.004
--------------------------------------------------------------------------------

  Frequencies (cm-1) [NB: Negative implies an imaginary mode]:

  549.62  600.82  693.61  732.85  746.27  875.41  949.02  953.49 1012.99
 1038.25 1064.38 1083.27 1239.50 1254.97 1323.56 1348.49 1378.40 1387.08
 1405.09 1419.33 1448.67 1458.27 1469.12 1499.21


--------------------------------------------------------------------------------
  K point     98 =   0.187500  0.562500  0.187500  Weight =    0.004
--------------------------------------------------------------------------------

  Frequencies (cm-1) [NB: Negative implies an imaginary mode]:

  576.62  592.99  714.07  715.81  808.64  906.30  906.30  917.78  964.47
  964.47 1087.15 1087.15 1281.25 1281.25 1349.16 1349.16 1387.68 1387.68
 1397.94 1415.11 1440.38 1445.75 1463.65 1497.23


--------------------------------------------------------------------------------
  K point     99 =   0.187500  0.562500  0.312500  Weight =    0.004
--------------------------------------------------------------------------------

  Frequencies (cm-1) [NB: Negative implies an imaginary mode]:

  597.13  646.96  709.94  753.85  823.58  840.61  885.58  887.17  914.44
  972.13 1065.58 1085.90 1314.55 1326.11 1361.00 1382.89 1386.58 1395.06
 1399.75 1409.43 1419.68 1432.02 1451.45 1487.22


--------------------------------------------------------------------------------
  K point    100 =   0.187500  0.562500  0.437500  Weight =    0.004
--------------------------------------------------------------------------------

  Frequencies (cm-1) [NB: Negative implies an imaginary mode]:

  649.94  722.50  730.85  730.85  777.21  804.39  804.39  859.93  961.83
 1023.06 1023.06 1062.88 1340.72 1362.90 1362.90 1383.64 1393.32 1400.69
 1400.69 1413.86 1416.16 1432.87 1432.87 1465.86


--------------------------------------------------------------------------------
  K point    101 =   0.187500  0.562500  0.562500  Weight =    0.004
--------------------------------------------------------------------------------

  Frequencies (cm-1) [NB: Negative implies an imaginary mode]:

  649.94  722.50  730.85  730.85  777.21  804.39  804.39  859.93  961.83
 1023.06 1023.06 1062.88 1340.72 1362.90 1362.90 1383.64 1393.32 1400.69
 1400.69 1413.86 1416.16 1432.87 1432.87 1465.86


--------------------------------------------------------------------------------
  K point    102 =   0.187500  0.562500  0.687500  Weight =    0.004
--------------------------------------------------------------------------------

  Frequencies (cm-1) [NB: Negative implies an imaginary mode]:

  597.13  646.96  709.94  753.85  823.58  840.61  885.58  887.17  914.44
  972.13 1065.58 1085.90 1314.55 1326.11 1361.00 1382.89 1386.58 1395.06
 1399.75 1409.43 1419.68 1432.02 1451.45 1487.22


--------------------------------------------------------------------------------
  K point    103 =   0.187500  0.562500  0.812500  Weight =    0.004
--------------------------------------------------------------------------------

  Frequencies (cm-1) [NB: Negative implies an imaginary mode]:

  576.62  592.99  714.07  715.81  808.64  906.30  906.30  917.78  964.47
  964.47 1087.15 1087.15 1281.25 1281.25 1349.16 1349.16 1387.68 1387.68
 1397.94 1415.11 1440.38 1445.75 1463.65 1497.23


--------------------------------------------------------------------------------
  K point    104 =   0.187500  0.562500  0.937500  Weight =    0.004
--------------------------------------------------------------------------------

  Frequencies (cm-1) [NB: Negative implies an imaginary mode]:

  549.62  600.82  693.61  732.85  746.27  875.41  949.02  953.49 1012.99
 1038.25 1064.38 1083.27 1239.50 1254.97 1323.56 1348.49 1378.40 1387.08
 1405.09 1419.33 1448.67 1458.27 1469.12 1499.21


--------------------------------------------------------------------------------
  K point    105 =   0.187500  0.687500  0.062500  Weight =    0.004
--------------------------------------------------------------------------------

  Frequencies (cm-1) [NB: Negative implies an imaginary mode]:

  408.43  466.99  607.96  829.38  857.64  948.37  968.97  990.17  990.71
 1063.97 1066.03 1102.50 1234.78 1271.36 1290.20 1348.76 1350.03 1372.08
 1373.47 1382.30 1429.37 1481.45 1488.31 1519.21


--------------------------------------------------------------------------------
  K point    106 =   0.187500  0.687500  0.187500  Weight =    0.004
--------------------------------------------------------------------------------

  Frequencies (cm-1) [NB: Negative implies an imaginary mode]:

  450.73  472.24  688.42  828.22  853.72  913.19  913.19  974.51  974.51
[...]
--------------------------------------------------------------------------------
  Zero point energy            =        1.666195 eV
  Entropy                      =        0.000002 eV/K
                               =        0.207476 J/(mol.K)
  Helmholtz free-energy        =      -57.270711 eV
                               =    -5525.747645 kJmol-1
  Free energy (equipartition)  =      -58.448038 eV
  - T*S       (equipartition)  =        0.323375 eV
  Uvib        (equipartition)  =        0.165453 eV
  Mean kinetic energy          =        0.833164 eV
  Heat capacity - const volume =        0.000007 eV/K
                               =        0.665864 J/(mol.K)
--------------------------------------------------------------------------------
  Phonon properties (per mole of unit cells): Temperature =     90.000 K
--------------------------------------------------------------------------------
  Zero point energy            =        1.666195 eV
  Entropy                      =        0.000003 eV/K
                               =        0.302487 J/(mol.K)
  Helmholtz free-energy        =      -57.270737 eV
                               =    -5525.750175 kJmol-1
  Free energy (equipartition)  =      -58.408858 eV
  - T*S       (equipartition)  =        0.341874 eV
  Uvib        (equipartition)  =        0.186134 eV
  Mean kinetic energy          =        0.833206 eV
  Heat capacity - const volume =        0.000010 eV/K
                               =        0.966912 J/(mol.K)
--------------------------------------------------------------------------------
  Phonon properties (per mole of unit cells): Temperature =    100.000 K
--------------------------------------------------------------------------------
  Zero point energy            =        1.666195 eV
  Entropy                      =        0.000004 eV/K
                               =        0.423698 J/(mol.K)
  Helmholtz free-energy        =      -57.270774 eV
                               =    -5525.753782 kJmol-1
  Free energy (equipartition)  =      -58.371981 eV
  - T*S       (equipartition)  =        0.358069 eV
  Uvib        (equipartition)  =        0.206816 eV
  Mean kinetic energy          =        0.833266 eV
  Heat capacity - const volume =        0.000014 eV/K
                               =        1.356911 J/(mol.K)
--------------------------------------------------------------------------------
  Phonon properties (per mole of unit cells): Temperature =    110.000 K
--------------------------------------------------------------------------------
  Zero point energy            =        1.666195 eV
  Entropy                      =        0.000006 eV/K
                               =        0.575320 J/(mol.K)
  Helmholtz free-energy        =      -57.270826 eV
                               =    -5525.758750 kJmol-1
  Free energy (equipartition)  =      -58.337175 eV
  - T*S       (equipartition)  =        0.372194 eV
  Uvib        (equipartition)  =        0.227498 eV
  Mean kinetic energy          =        0.833348 eV
  Heat capacity - const volume =        0.000019 eV/K
                               =        1.851231 J/(mol.K)
--------------------------------------------------------------------------------
  Phonon properties (per mole of unit cells): Temperature =    120.000 K
--------------------------------------------------------------------------------
  Zero point energy            =        1.666195 eV
  Entropy                      =        0.000008 eV/K
                               =        0.761784 J/(mol.K)
  Helmholtz free-energy        =      -57.270895 eV
                               =    -5525.765405 kJmol-1
  Free energy (equipartition)  =      -58.304252 eV
  - T*S       (equipartition)  =        0.384435 eV
  Uvib        (equipartition)  =        0.248179 eV
  Mean kinetic energy          =        0.833460 eV
  Heat capacity - const volume =        0.000026 eV/K
                               =        2.464619 J/(mol.K)
--------------------------------------------------------------------------------
  Phonon properties (per mole of unit cells): Temperature =    130.000 K
--------------------------------------------------------------------------------
  Zero point energy            =        1.666195 eV
  Entropy                      =        0.000010 eV/K
                               =        0.987577 J/(mol.K)
  Helmholtz free-energy        =      -57.270985 eV
                               =    -5525.774117 kJmol-1
  Free energy (equipartition)  =      -58.273055 eV
  - T*S       (equipartition)  =        0.394951 eV
  Uvib        (equipartition)  =        0.268861 eV
  Mean kinetic energy          =        0.833606 eV
  Heat capacity - const volume =        0.000033 eV/K
                               =        3.210132 J/(mol.K)
--------------------------------------------------------------------------------
  Phonon properties (per mole of unit cells): Temperature =    140.000 K
--------------------------------------------------------------------------------
  Zero point energy            =        1.666195 eV
  Entropy                      =        0.000013 eV/K
                               =        1.257072 J/(mol.K)
  Helmholtz free-energy        =      -57.271101 eV
                               =    -5525.785302 kJmol-1
  Free energy (equipartition)  =      -58.243450 eV
  - T*S       (equipartition)  =        0.403874 eV
  Uvib        (equipartition)  =        0.289542 eV
  Mean kinetic energy          =        0.833795 eV
  Heat capacity - const volume =        0.000042 eV/K
                               =        4.098394 J/(mol.K)
--------------------------------------------------------------------------------
  Phonon properties (per mole of unit cells): Temperature =    150.000 K
--------------------------------------------------------------------------------
  Zero point energy            =        1.666195 eV
  Entropy                      =        0.000016 eV/K
                               =        1.574373 J/(mol.K)
  Helmholtz free-energy        =      -57.271247 eV
                               =    -5525.799418 kJmol-1
  Free energy (equipartition)  =      -58.215323 eV
  - T*S       (equipartition)  =        0.411319 eV
  Uvib        (equipartition)  =        0.310224 eV
  Mean kinetic energy          =        0.834033 eV
  Heat capacity - const volume =        0.000053 eV/K
                               =        5.137210 J/(mol.K)
--------------------------------------------------------------------------------
  Phonon properties (per mole of unit cells): Temperature =    160.000 K
--------------------------------------------------------------------------------
  Zero point energy            =        1.666195 eV
  Entropy                      =        0.000020 eV/K
                               =        1.943200 J/(mol.K)
  Helmholtz free-energy        =      -57.271429 eV
                               =    -5525.816961 kJmol-1
  Free energy (equipartition)  =      -58.188577 eV
  - T*S       (equipartition)  =        0.417384 eV
  Uvib        (equipartition)  =        0.330906 eV
  Mean kinetic energy          =        0.834330 eV
  Heat capacity - const volume =        0.000066 eV/K
                               =        6.331488 J/(mol.K)
--------------------------------------------------------------------------------
  Phonon properties (per mole of unit cells): Temperature =    170.000 K
--------------------------------------------------------------------------------
  Zero point energy            =        1.666195 eV
  Entropy                      =        0.000025 eV/K
                               =        2.366811 J/(mol.K)
  Helmholtz free-energy        =      -57.271652 eV
                               =    -5525.838465 kJmol-1
  Free energy (equipartition)  =      -58.163123 eV
  - T*S       (equipartition)  =        0.422156 eV
  Uvib        (equipartition)  =        0.351587 eV
  Mean kinetic energy          =        0.834692 eV
  Heat capacity - const volume =        0.000080 eV/K
                               =        7.683360 J/(mol.K)
--------------------------------------------------------------------------------
  Phonon properties (per mole of unit cells): Temperature =    180.000 K
--------------------------------------------------------------------------------
  Zero point energy            =        1.666195 eV
  Entropy                      =        0.000030 eV/K
                               =        2.847953 J/(mol.K)
  Helmholtz free-energy        =      -57.271922 eV
                               =    -5525.864489 kJmol-1
  Free energy (equipartition)  =      -58.138887 eV
  - T*S       (equipartition)  =        0.425710 eV
  Uvib        (equipartition)  =        0.372269 eV
  Mean kinetic energy          =        0.835129 eV
  Heat capacity - const volume =        0.000095 eV/K
                               =        9.192416 J/(mol.K)
--------------------------------------------------------------------------------
  Phonon properties (per mole of unit cells): Temperature =    190.000 K
--------------------------------------------------------------------------------
  Zero point energy            =        1.666195 eV
  Entropy                      =        0.000035 eV/K
                               =        3.388841 J/(mol.K)
  Helmholtz free-energy        =      -57.272244 eV
                               =    -5525.895623 kJmol-1
  Free energy (equipartition)  =      -58.115801 eV
  - T*S       (equipartition)  =        0.428115 eV
  Uvib        (equipartition)  =        0.392951 eV
  Mean kinetic energy          =        0.835648 eV
  Heat capacity - const volume =        0.000113 eV/K
                               =       10.855982 J/(mol.K)
--------------------------------------------------------------------------------
  Phonon properties (per mole of unit cells): Temperature =    200.000 K
--------------------------------------------------------------------------------
  Zero point energy            =        1.666195 eV
  Entropy                      =        0.000041 eV/K
                               =        3.991163 J/(mol.K)
  Helmholtz free-energy        =      -57.272626 eV
                               =    -5525.932471 kJmol-1
  Free energy (equipartition)  =      -58.093803 eV
  - T*S       (equipartition)  =        0.429431 eV
  Uvib        (equipartition)  =        0.413632 eV
  Mean kinetic energy          =        0.836257 eV
  Heat capacity - const volume =        0.000131 eV/K
                               =       12.669414 J/(mol.K)
--------------------------------------------------------------------------------
  Phonon properties (per mole of unit cells): Temperature =    210.000 K
--------------------------------------------------------------------------------
  Zero point energy            =        1.666195 eV
  Entropy                      =        0.000048 eV/K
                               =        4.656089 J/(mol.K)
  Helmholtz free-energy        =      -57.273074 eV
                               =    -5525.975655 kJmol-1
  Free energy (equipartition)  =      -58.072841 eV
  - T*S       (equipartition)  =        0.429712 eV
  Uvib        (equipartition)  =        0.434314 eV
  Mean kinetic energy          =        0.836963 eV
  Heat capacity - const volume =        0.000152 eV/K
                               =       14.626383 J/(mol.K)
--------------------------------------------------------------------------------
  Phonon properties (per mole of unit cells): Temperature =    220.000 K
--------------------------------------------------------------------------------
  Zero point energy            =        1.666195 eV
  Entropy                      =        0.000056 eV/K
                               =        5.384299 J/(mol.K)
  Helmholtz free-energy        =      -57.273594 eV
                               =    -5526.025804 kJmol-1
  Free energy (equipartition)  =      -58.052863 eV
  - T*S       (equipartition)  =        0.429008 eV
  Uvib        (equipartition)  =        0.454995 eV
  Mean kinetic energy          =        0.837775 eV
  Heat capacity - const volume =        0.000173 eV/K
                               =       16.719148 J/(mol.K)
--------------------------------------------------------------------------------
  Phonon properties (per mole of unit cells): Temperature =    230.000 K
--------------------------------------------------------------------------------
  Zero point energy            =        1.666195 eV
  Entropy                      =        0.000064 eV/K
                               =        6.176011 J/(mol.K)
  Helmholtz free-energy        =      -57.274192 eV
                               =    -5526.083552 kJmol-1
  Free energy (equipartition)  =      -58.033826 eV
  - T*S       (equipartition)  =        0.427364 eV
  Uvib        (equipartition)  =        0.475677 eV
  Mean kinetic energy          =        0.838698 eV
  Heat capacity - const volume =        0.000196 eV/K
                               =       18.938819 J/(mol.K)
--------------------------------------------------------------------------------
  Phonon properties (per mole of unit cells): Temperature =    240.000 K
--------------------------------------------------------------------------------
  Zero point energy            =        1.666195 eV
  Entropy                      =        0.000073 eV/K
                               =        7.031016 J/(mol.K)
  Helmholtz free-energy        =      -57.274876 eV
                               =    -5526.149535 kJmol-1
  Free energy (equipartition)  =      -58.015688 eV
  - T*S       (equipartition)  =        0.424820 eV
  Uvib        (equipartition)  =        0.496359 eV
  Mean kinetic energy          =        0.839740 eV
  Heat capacity - const volume =        0.000221 eV/K
                               =       21.275607 J/(mol.K)
--------------------------------------------------------------------------------
  Phonon properties (per mole of unit cells): Temperature =    250.000 K
--------------------------------------------------------------------------------
  Zero point energy            =        1.666195 eV
  Entropy                      =        0.000082 eV/K
                               =        7.948718 J/(mol.K)
  Helmholtz free-energy        =      -57.275652 eV
                               =    -5526.224382 kJmol-1
  Free energy (equipartition)  =      -57.998412 eV
  - T*S       (equipartition)  =        0.421414 eV
  Uvib        (equipartition)  =        0.517040 eV
  Mean kinetic energy          =        0.840905 eV
  Heat capacity - const volume =        0.000246 eV/K
                               =       23.719061 J/(mol.K)
--------------------------------------------------------------------------------
  Phonon properties (per mole of unit cells): Temperature =    260.000 K
--------------------------------------------------------------------------------
  Zero point energy            =        1.666195 eV
  Entropy                      =        0.000093 eV/K
                               =        8.928171 J/(mol.K)
  Helmholtz free-energy        =      -57.276526 eV
                               =    -5526.308715 kJmol-1
  Free energy (equipartition)  =      -57.981964 eV
  - T*S       (equipartition)  =        0.417181 eV
  Uvib        (equipartition)  =        0.537722 eV
  Mean kinetic energy          =        0.842200 eV
  Heat capacity - const volume =        0.000272 eV/K
                               =       26.258291 J/(mol.K)
--------------------------------------------------------------------------------
  Phonon properties (per mole of unit cells): Temperature =    270.000 K
--------------------------------------------------------------------------------
  Zero point energy            =        1.666195 eV
  Entropy                      =        0.000103 eV/K
                               =        9.968121 J/(mol.K)
  Helmholtz free-energy        =      -57.277505 eV
                               =    -5526.403147 kJmol-1
  Free energy (equipartition)  =      -57.966311 eV
  - T*S       (equipartition)  =        0.412152 eV
  Uvib        (equipartition)  =        0.558403 eV
  Mean kinetic energy          =        0.843628 eV
  Heat capacity - const volume =        0.000299 eV/K
                               =       28.882169 J/(mol.K)
--------------------------------------------------------------------------------
  Phonon properties (per mole of unit cells): Temperature =    280.000 K
--------------------------------------------------------------------------------
  Zero point energy            =        1.666195 eV
  Entropy                      =        0.000115 eV/K
                               =       11.067042 J/(mol.K)
  Helmholtz free-energy        =      -57.278594 eV
                               =    -5526.508274 kJmol-1
  Free energy (equipartition)  =      -57.951424 eV
  - T*S       (equipartition)  =        0.406357 eV
  Uvib        (equipartition)  =        0.579085 eV
  Mean kinetic energy          =        0.845195 eV
  Heat capacity - const volume =        0.000327 eV/K
                               =       31.579517 J/(mol.K)
--------------------------------------------------------------------------------
  Phonon properties (per mole of unit cells): Temperature =    290.000 K
--------------------------------------------------------------------------------
  Zero point energy            =        1.666195 eV
  Entropy                      =        0.000127 eV/K
                               =       12.223181 J/(mol.K)
  Helmholtz free-energy        =      -57.279801 eV
                               =    -5526.624679 kJmol-1
  Free energy (equipartition)  =      -57.937276 eV
  - T*S       (equipartition)  =        0.399823 eV
  Uvib        (equipartition)  =        0.599767 eV
  Mean kinetic energy          =        0.846902 eV
  Heat capacity - const volume =        0.000356 eV/K
                               =       34.339266 J/(mol.K)
--------------------------------------------------------------------------------
  Phonon properties (per mole of unit cells): Temperature =    300.000 K
--------------------------------------------------------------------------------
  Zero point energy            =        1.666195 eV
  Entropy                      =        0.000139 eV/K
                               =       13.434590 J/(mol.K)
  Helmholtz free-energy        =      -57.281130 eV
                               =    -5526.752922 kJmol-1
  Free energy (equipartition)  =      -57.923842 eV
  - T*S       (equipartition)  =        0.392576 eV
  Uvib        (equipartition)  =        0.620448 eV
  Mean kinetic energy          =        0.848754 eV
  Heat capacity - const volume =        0.000385 eV/K
                               =       37.150600 J/(mol.K)
--------------------------------------------------------------------------------

  Time to end of properties =      13.7263 seconds


  Peak dynamic memory used =       1.93 MB 


  Timing analysis for GULP :

--------------------------------------------------------------------------------
  Task / Subroutine                                          Time (Seconds)
--------------------------------------------------------------------------------
  Calculation of real space energy and derivatives                0.0037
  Calculation of Brenner energy and derivatives                  13.4475
  Calculation of phonons                                         13.6438
  Disk read/write operations to scratch files                     0.0410
--------------------------------------------------------------------------------
  Total CPU time                                                 13.7264
--------------------------------------------------------------------------------


  Job Finished at 13:02.08 31st July       2020                               

