********************************************************************************
*                       GENERAL UTILITY LATTICE PROGRAM                        *
*                                 Julian Gale                                  *
*                       Curtin Institute for Computation                       *
*                           Department of Chemistry                            *
*                    Curtin University, Western Australia                      *
********************************************************************************
* Version = 5.1.0 * Last modified = 25th January 2020                          *
********************************************************************************
*  single       - perform a single point run                                   *
*  property     - calculate properties for final geometry                      *
*  phonon       - calculate phonons for final geometry                         *
********************************************************************************
* ASE calculation                                                              *
********************************************************************************


  Job Started  at 18:11.00 14th August     2020                               

  Number of CPUs =     1


  Total number of configurations input =      1

********************************************************************************
*  Input for Configuration =   1                                               *
********************************************************************************

  Formula = C8                                                          

  Number of irreducible atoms/shells =       8


  Total number atoms/shells =       8

  Dimensionality = 3               :  Bulk   



  Cartesian lattice vectors (Angstroms) :

        3.587761    0.000000    0.000000
        0.000000    3.587761    0.000000
        0.000000    0.000000    3.587761

  Cell parameters (Angstroms/Degrees):

  a =       3.5878    alpha =  90.0000
  b =       3.5878    beta  =  90.0000
  c =       3.5878    gamma =  90.0000

  Initial cell volume =          46.181764 Angs**3

  Shrinking factors =      8     8     8

  Temperature of configuration =  10.00     K 

  Pressure of configuration =         0.000 GPa 

  Fractional coordinates of asymmetric unit :

--------------------------------------------------------------------------------
   No.  Atomic       x           y          z         Charge      Occupancy
        Label      (Frac)      (Frac)     (Frac)        (e)         (Frac)  
--------------------------------------------------------------------------------
      1 C     c    0.000000    0.000000    0.000000     0.00000    1.000000    
      2 C     c    0.000000    0.500000    0.500000     0.00000    1.000000    
      3 C     c    0.500000    0.500000    0.000000     0.00000    1.000000    
      4 C     c    0.500000    0.000000    0.500000     0.00000    1.000000    
      5 C     c    0.750000    0.250000    0.750000     0.00000    1.000000    
      6 C     c    0.250000    0.250000    0.250000     0.00000    1.000000    
      7 C     c    0.250000    0.750000    0.750000     0.00000    1.000000    
      8 C     c    0.750000    0.750000    0.250000     0.00000    1.000000    
--------------------------------------------------------------------------------


  Brillouin zone sampling points :

--------------------------------------------------------------------------------
  Point number          x          y          z            Weight
--------------------------------------------------------------------------------
        1           0.062500   0.062500   0.062500     0.00390625
        2           0.062500   0.062500   0.187500     0.00390625
        3           0.062500   0.062500   0.312500     0.00390625
        4           0.062500   0.062500   0.437500     0.00390625
        5           0.062500   0.062500   0.562500     0.00390625
        6           0.062500   0.062500   0.687500     0.00390625
        7           0.062500   0.062500   0.812500     0.00390625
        8           0.062500   0.062500   0.937500     0.00390625
        9           0.062500   0.187500   0.062500     0.00390625
       10           0.062500   0.187500   0.187500     0.00390625
       11           0.062500   0.187500   0.312500     0.00390625
       12           0.062500   0.187500   0.437500     0.00390625
       13           0.062500   0.187500   0.562500     0.00390625
       14           0.062500   0.187500   0.687500     0.00390625
       15           0.062500   0.187500   0.812500     0.00390625
       16           0.062500   0.187500   0.937500     0.00390625
       17           0.062500   0.312500   0.062500     0.00390625
       18           0.062500   0.312500   0.187500     0.00390625
       19           0.062500   0.312500   0.312500     0.00390625
       20           0.062500   0.312500   0.437500     0.00390625
       21           0.062500   0.312500   0.562500     0.00390625
       22           0.062500   0.312500   0.687500     0.00390625
       23           0.062500   0.312500   0.812500     0.00390625
       24           0.062500   0.312500   0.937500     0.00390625
       25           0.062500   0.437500   0.062500     0.00390625
       26           0.062500   0.437500   0.187500     0.00390625
       27           0.062500   0.437500   0.312500     0.00390625
       28           0.062500   0.437500   0.437500     0.00390625
       29           0.062500   0.437500   0.562500     0.00390625
       30           0.062500   0.437500   0.687500     0.00390625
       31           0.062500   0.437500   0.812500     0.00390625
       32           0.062500   0.437500   0.937500     0.00390625
       33           0.062500   0.562500   0.062500     0.00390625
       34           0.062500   0.562500   0.187500     0.00390625
       35           0.062500   0.562500   0.312500     0.00390625
       36           0.062500   0.562500   0.437500     0.00390625
       37           0.062500   0.562500   0.562500     0.00390625
       38           0.062500   0.562500   0.687500     0.00390625
       39           0.062500   0.562500   0.812500     0.00390625
       40           0.062500   0.562500   0.937500     0.00390625
       41           0.062500   0.687500   0.062500     0.00390625
       42           0.062500   0.687500   0.187500     0.00390625
       43           0.062500   0.687500   0.312500     0.00390625
       44           0.062500   0.687500   0.437500     0.00390625
       45           0.062500   0.687500   0.562500     0.00390625
       46           0.062500   0.687500   0.687500     0.00390625
       47           0.062500   0.687500   0.812500     0.00390625
       48           0.062500   0.687500   0.937500     0.00390625
       49           0.062500   0.812500   0.062500     0.00390625
       50           0.062500   0.812500   0.187500     0.00390625
       51           0.062500   0.812500   0.312500     0.00390625
       52           0.062500   0.812500   0.437500     0.00390625
       53           0.062500   0.812500   0.562500     0.00390625
       54           0.062500   0.812500   0.687500     0.00390625
       55           0.062500   0.812500   0.812500     0.00390625
       56           0.062500   0.812500   0.937500     0.00390625
       57           0.062500   0.937500   0.062500     0.00390625
       58           0.062500   0.937500   0.187500     0.00390625
       59           0.062500   0.937500   0.312500     0.00390625
       60           0.062500   0.937500   0.437500     0.00390625
       61           0.062500   0.937500   0.562500     0.00390625
       62           0.062500   0.937500   0.687500     0.00390625
       63           0.062500   0.937500   0.812500     0.00390625
       64           0.062500   0.937500   0.937500     0.00390625
       65           0.187500   0.062500   0.062500     0.00390625
       66           0.187500   0.062500   0.187500     0.00390625
       67           0.187500   0.062500   0.312500     0.00390625
       68           0.187500   0.062500   0.437500     0.00390625
       69           0.187500   0.062500   0.562500     0.00390625
       70           0.187500   0.062500   0.687500     0.00390625
       71           0.187500   0.062500   0.812500     0.00390625
       72           0.187500   0.062500   0.937500     0.00390625
       73           0.187500   0.187500   0.062500     0.00390625
       74           0.187500   0.187500   0.187500     0.00390625
       75           0.187500   0.187500   0.312500     0.00390625
       76           0.187500   0.187500   0.437500     0.00390625
       77           0.187500   0.187500   0.562500     0.00390625
       78           0.187500   0.187500   0.687500     0.00390625
       79           0.187500   0.187500   0.812500     0.00390625
       80           0.187500   0.187500   0.937500     0.00390625
       81           0.187500   0.312500   0.062500     0.00390625
       82           0.187500   0.312500   0.187500     0.00390625
       83           0.187500   0.312500   0.312500     0.00390625
       84           0.187500   0.312500   0.437500     0.00390625
       85           0.187500   0.312500   0.562500     0.00390625
       86           0.187500   0.312500   0.687500     0.00390625
       87           0.187500   0.312500   0.812500     0.00390625
       88           0.187500   0.312500   0.937500     0.00390625
       89           0.187500   0.437500   0.062500     0.00390625
       90           0.187500   0.437500   0.187500     0.00390625
       91           0.187500   0.437500   0.312500     0.00390625
       92           0.187500   0.437500   0.437500     0.00390625
       93           0.187500   0.437500   0.562500     0.00390625
       94           0.187500   0.437500   0.687500     0.00390625
       95           0.187500   0.437500   0.812500     0.00390625
       96           0.187500   0.437500   0.937500     0.00390625
       97           0.187500   0.562500   0.062500     0.00390625
       98           0.187500   0.562500   0.187500     0.00390625
       99           0.187500   0.562500   0.312500     0.00390625
      100           0.187500   0.562500   0.437500     0.00390625
      101           0.187500   0.562500   0.562500     0.00390625
      102           0.187500   0.562500   0.687500     0.00390625
      103           0.187500   0.562500   0.812500     0.00390625
      104           0.187500   0.562500   0.937500     0.00390625
      105           0.187500   0.687500   0.062500     0.00390625
      106           0.187500   0.687500   0.187500     0.00390625
      107           0.187500   0.687500   0.312500     0.00390625
      108           0.187500   0.687500   0.437500     0.00390625
      109           0.187500   0.687500   0.562500     0.00390625
      110           0.187500   0.687500   0.687500     0.00390625
      111           0.187500   0.687500   0.812500     0.00390625
      112           0.187500   0.687500   0.937500     0.00390625
      113           0.187500   0.812500   0.062500     0.00390625
      114           0.187500   0.812500   0.187500     0.00390625
      115           0.187500   0.812500   0.312500     0.00390625
      116           0.187500   0.812500   0.437500     0.00390625
      117           0.187500   0.812500   0.562500     0.00390625
      118           0.187500   0.812500   0.687500     0.00390625
      119           0.187500   0.812500   0.812500     0.00390625
      120           0.187500   0.812500   0.937500     0.00390625
      121           0.187500   0.937500   0.062500     0.00390625
      122           0.187500   0.937500   0.187500     0.00390625
      123           0.187500   0.937500   0.312500     0.00390625
      124           0.187500   0.937500   0.437500     0.00390625
      125           0.187500   0.937500   0.562500     0.00390625
      126           0.187500   0.937500   0.687500     0.00390625
      127           0.187500   0.937500   0.812500     0.00390625
      128           0.187500   0.937500   0.937500     0.00390625
      129           0.312500   0.062500   0.062500     0.00390625
      130           0.312500   0.062500   0.187500     0.00390625
      131           0.312500   0.062500   0.312500     0.00390625
      132           0.312500   0.062500   0.437500     0.00390625
      133           0.312500   0.062500   0.562500     0.00390625
      134           0.312500   0.062500   0.687500     0.00390625
      135           0.312500   0.062500   0.812500     0.00390625
      136           0.312500   0.062500   0.937500     0.00390625
      137           0.312500   0.187500   0.062500     0.00390625
      138           0.312500   0.187500   0.187500     0.00390625
      139           0.312500   0.187500   0.312500     0.00390625
      140           0.312500   0.187500   0.437500     0.00390625
      141           0.312500   0.187500   0.562500     0.00390625
      142           0.312500   0.187500   0.687500     0.00390625
      143           0.312500   0.187500   0.812500     0.00390625
      144           0.312500   0.187500   0.937500     0.00390625
      145           0.312500   0.312500   0.062500     0.00390625
      146           0.312500   0.312500   0.187500     0.00390625
      147           0.312500   0.312500   0.312500     0.00390625
      148           0.312500   0.312500   0.437500     0.00390625
      149           0.312500   0.312500   0.562500     0.00390625
      150           0.312500   0.312500   0.687500     0.00390625
      151           0.312500   0.312500   0.812500     0.00390625
      152           0.312500   0.312500   0.937500     0.00390625
      153           0.312500   0.437500   0.062500     0.00390625
      154           0.312500   0.437500   0.187500     0.00390625
      155           0.312500   0.437500   0.312500     0.00390625
      156           0.312500   0.437500   0.437500     0.00390625
      157           0.312500   0.437500   0.562500     0.00390625
      158           0.312500   0.437500   0.687500     0.00390625
      159           0.312500   0.437500   0.812500     0.00390625
      160           0.312500   0.437500   0.937500     0.00390625
      161           0.312500   0.562500   0.062500     0.00390625
      162           0.312500   0.562500   0.187500     0.00390625
      163           0.312500   0.562500   0.312500     0.00390625
      164           0.312500   0.562500   0.437500     0.00390625
      165           0.312500   0.562500   0.562500     0.00390625
      166           0.312500   0.562500   0.687500     0.00390625
      167           0.312500   0.562500   0.812500     0.00390625
      168           0.312500   0.562500   0.937500     0.00390625
      169           0.312500   0.687500   0.062500     0.00390625
      170           0.312500   0.687500   0.187500     0.00390625
      171           0.312500   0.687500   0.312500     0.00390625
      172           0.312500   0.687500   0.437500     0.00390625
      173           0.312500   0.687500   0.562500     0.00390625
      174           0.312500   0.687500   0.687500     0.00390625
      175           0.312500   0.687500   0.812500     0.00390625
      176           0.312500   0.687500   0.937500     0.00390625
      177           0.312500   0.812500   0.062500     0.00390625
      178           0.312500   0.812500   0.187500     0.00390625
      179           0.312500   0.812500   0.312500     0.00390625
      180           0.312500   0.812500   0.437500     0.00390625
      181           0.312500   0.812500   0.562500     0.00390625
      182           0.312500   0.812500   0.687500     0.00390625
      183           0.312500   0.812500   0.812500     0.00390625
      184           0.312500   0.812500   0.937500     0.00390625
      185           0.312500   0.937500   0.062500     0.00390625
      186           0.312500   0.937500   0.187500     0.00390625
      187           0.312500   0.937500   0.312500     0.00390625
      188           0.312500   0.937500   0.437500     0.00390625
      189           0.312500   0.937500   0.562500     0.00390625
      190           0.312500   0.937500   0.687500     0.00390625
      191           0.312500   0.937500   0.812500     0.00390625
      192           0.312500   0.937500   0.937500     0.00390625
      193           0.437500   0.062500   0.062500     0.00390625
      194           0.437500   0.062500   0.187500     0.00390625
      195           0.437500   0.062500   0.312500     0.00390625
      196           0.437500   0.062500   0.437500     0.00390625
      197           0.437500   0.062500   0.562500     0.00390625
      198           0.437500   0.062500   0.687500     0.00390625
      199           0.437500   0.062500   0.812500     0.00390625
      200           0.437500   0.062500   0.937500     0.00390625
      201           0.437500   0.187500   0.062500     0.00390625
      202           0.437500   0.187500   0.187500     0.00390625
      203           0.437500   0.187500   0.312500     0.00390625
      204           0.437500   0.187500   0.437500     0.00390625
      205           0.437500   0.187500   0.562500     0.00390625
      206           0.437500   0.187500   0.687500     0.00390625
      207           0.437500   0.187500   0.812500     0.00390625
      208           0.437500   0.187500   0.937500     0.00390625
      209           0.437500   0.312500   0.062500     0.00390625
      210           0.437500   0.312500   0.187500     0.00390625
      211           0.437500   0.312500   0.312500     0.00390625
      212           0.437500   0.312500   0.437500     0.00390625
      213           0.437500   0.312500   0.562500     0.00390625
      214           0.437500   0.312500   0.687500     0.00390625
      215           0.437500   0.312500   0.812500     0.00390625
      216           0.437500   0.312500   0.937500     0.00390625
      217           0.437500   0.437500   0.062500     0.00390625
      218           0.437500   0.437500   0.187500     0.00390625
      219           0.437500   0.437500   0.312500     0.00390625
      220           0.437500   0.437500   0.437500     0.00390625
      221           0.437500   0.437500   0.562500     0.00390625
      222           0.437500   0.437500   0.687500     0.00390625
      223           0.437500   0.437500   0.812500     0.00390625
      224           0.437500   0.437500   0.937500     0.00390625
      225           0.437500   0.562500   0.062500     0.00390625
      226           0.437500   0.562500   0.187500     0.00390625
      227           0.437500   0.562500   0.312500     0.00390625
      228           0.437500   0.562500   0.437500     0.00390625
      229           0.437500   0.562500   0.562500     0.00390625
      230           0.437500   0.562500   0.687500     0.00390625
      231           0.437500   0.562500   0.812500     0.00390625
      232           0.437500   0.562500   0.937500     0.00390625
      233           0.437500   0.687500   0.062500     0.00390625
      234           0.437500   0.687500   0.187500     0.00390625
      235           0.437500   0.687500   0.312500     0.00390625
      236           0.437500   0.687500   0.437500     0.00390625
      237           0.437500   0.687500   0.562500     0.00390625
      238           0.437500   0.687500   0.687500     0.00390625
      239           0.437500   0.687500   0.812500     0.00390625
      240           0.437500   0.687500   0.937500     0.00390625
      241           0.437500   0.812500   0.062500     0.00390625
      242           0.437500   0.812500   0.187500     0.00390625
      243           0.437500   0.812500   0.312500     0.00390625
      244           0.437500   0.812500   0.437500     0.00390625
      245           0.437500   0.812500   0.562500     0.00390625
      246           0.437500   0.812500   0.687500     0.00390625
      247           0.437500   0.812500   0.812500     0.00390625
      248           0.437500   0.812500   0.937500     0.00390625
      249           0.437500   0.937500   0.062500     0.00390625
      250           0.437500   0.937500   0.187500     0.00390625
      251           0.437500   0.937500   0.312500     0.00390625
      252           0.437500   0.937500   0.437500     0.00390625
      253           0.437500   0.937500   0.562500     0.00390625
      254           0.437500   0.937500   0.687500     0.00390625
      255           0.437500   0.937500   0.812500     0.00390625
      256           0.437500   0.937500   0.937500     0.00390625
--------------------------------------------------------------------------------


********************************************************************************
*  General input information                                                   *
********************************************************************************

  Species output for all configurations : 

--------------------------------------------------------------------------------
  Species    Type    Atomic    Atomic    Charge       Radii (Angs)     Library
                     Number     Mass       (e)     Cova   Ionic  VDW   Symbol
--------------------------------------------------------------------------------
    C        Core        6      12.01   0.000000   0.770  0.000  1.530          
--------------------------------------------------------------------------------


  Lattice summation method               =    Ewald          (3-D)
                                         =    Parry          (2-D)
                                         =    Saunders et al (1-D)
  Accuracy factor for lattice sums       =   12.000


  Time limit = Infinity

  Maximum range for interatomic potentials =    100000.000000 Angstroms

  Brenner et al 2002 potential to be used with explicit splines for P


********************************************************************************
*  Output for configuration   1                                                *
********************************************************************************


  Components of energy : 

--------------------------------------------------------------------------------
  Interatomic potentials     =           0.00000000 eV    
  Brenner potentials         =         -58.93694003 eV    
  Monopole - monopole (real) =           0.00000000 eV    
  Monopole - monopole (recip)=           0.00000000 eV    
  Monopole - monopole (total)=           0.00000000 eV    
--------------------------------------------------------------------------------
  Total lattice energy       =         -58.93694003 eV    
--------------------------------------------------------------------------------
  Total lattice energy       =           -5686.5138 kJ/(mole unit cells)
--------------------------------------------------------------------------------


  Elastic Constant Matrix: (Units=GPa)

-------------------------------------------------------------------------------
  Indices      1         2         3         4         5         6    
-------------------------------------------------------------------------------
       1   1025.2767  106.6226  106.6226   -0.0000   -0.0000   -0.0000
       2    106.6226 1025.2767  106.6226    0.0000    0.0000    0.0000
       3    106.6226  106.6226 1025.2767    0.0000   -0.0000    0.0000
       4     -0.0000    0.0000    0.0000  683.9573    0.0000   -0.0000
       5     -0.0000    0.0000   -0.0000    0.0000  683.9573    0.0000
       6     -0.0000    0.0000    0.0000   -0.0000    0.0000  683.9573
-------------------------------------------------------------------------------

  Elastic Constant Tensor Eigenvalues: (Units=GPa)

-------------------------------------------------------------------------------
     1 =   683.9573     2 =   683.9573     3 =   683.9573
     4 =   918.6541     5 =   918.6541     6 =  1238.5220
-------------------------------------------------------------------------------


  Elastic Compliance Matrix: (Units=1/GPa)

-------------------------------------------------------------------------------
  Indices      1         2         3         4         5         6    
-------------------------------------------------------------------------------
       1    0.000995 -0.000094 -0.000094  0.000000  0.000000  0.000000
       2   -0.000094  0.000995 -0.000094 -0.000000 -0.000000 -0.000000
       3   -0.000094 -0.000094  0.000995 -0.000000  0.000000  0.000000
       4    0.000000 -0.000000 -0.000000  0.001462 -0.000000  0.000000
       5    0.000000 -0.000000  0.000000 -0.000000  0.001462 -0.000000
       6    0.000000 -0.000000  0.000000  0.000000 -0.000000  0.001462
-------------------------------------------------------------------------------

  Mechanical properties :

-------------------------------------------------------------------------------
  Convention :                    Reuss         Voigt         Hill
-------------------------------------------------------------------------------
  Bulk  Modulus (GPa)     =     412.84067     412.84067     412.84067
  Shear Modulus (GPa)     =     572.05394     594.10522     583.07958
-------------------------------------------------------------------------------
  Velocity S-wave (km/s)  =      12.86795      13.11362      12.99136
  Velocity P-wave (km/s)  =      18.44662      18.67587      18.56160
-------------------------------------------------------------------------------
  Compressibility (1/GPa) =    0.00242224
-------------------------------------------------------------------------------
  Stress axis :                     x             y             z
-------------------------------------------------------------------------------
  Youngs Moduli (GPa)     =    1005.18947    1005.18947    1005.18947
-------------------------------------------------------------------------------
  Poissons Ratio (x)      =                     0.09420       0.09420
  Poissons Ratio (y)      =       0.09420                     0.09420
  Poissons Ratio (z)      =       0.09420       0.09420
-------------------------------------------------------------------------------


  Piezoelectric Strain Matrix: (Units=C/m**2)

-------------------------------------------------------------------------------
  Indices      1         2         3         4         5         6    
-------------------------------------------------------------------------------
       x    -0.00000  -0.00000  -0.00000  -0.00000  -0.00000  -0.00000
       y    -0.00000  -0.00000  -0.00000  -0.00000  -0.00000  -0.00000
       z    -0.00000  -0.00000  -0.00000  -0.00000  -0.00000  -0.00000
-------------------------------------------------------------------------------


  Piezoelectric Stress Matrix: (Units=10**-11 C/N)

-------------------------------------------------------------------------------
  Indices      1         2         3         4         5         6    
-------------------------------------------------------------------------------
       x     0.00000   0.00000   0.00000   0.00000   0.00000   0.00000
       y     0.00000   0.00000   0.00000   0.00000   0.00000   0.00000
       z     0.00000   0.00000   0.00000   0.00000   0.00000   0.00000
-------------------------------------------------------------------------------


  Static dielectric constant tensor : 

-------------------------------------------------------------------------------
              x         y         z
-------------------------------------------------------------------------------
       x     1.00000   0.00000   0.00000
       y     0.00000   1.00000   0.00000
       z     0.00000   0.00000   1.00000
--------------------------------------------------------------------------------

  Static refractive indices : 

-------------------------------------------------------------------------------
    1 =    1.00000      2 =    1.00000      3 =    1.00000
-------------------------------------------------------------------------------


  Phonon Calculation : 

  Number of k points for this configuration =      256

--------------------------------------------------------------------------------
  K point      1 =   0.062500  0.062500  0.062500  Weight =    0.004
--------------------------------------------------------------------------------

  Frequencies (cm-1) [NB: Negative implies an imaginary mode]:

  124.74  124.74  195.67 1037.84 1037.84 1037.84 1049.58 1049.58 1049.58
 1186.57 1186.57 1186.57 1227.36 1227.36 1227.36 1255.06 1255.06 1255.06
 1320.91 1320.91 1320.91 1530.90 1530.90 1535.29


--------------------------------------------------------------------------------
  K point      2 =   0.062500  0.062500  0.187500  Weight =    0.004
--------------------------------------------------------------------------------

  Frequencies (cm-1) [NB: Negative implies an imaginary mode]:

  244.56  260.22  351.18  949.48  957.58 1030.20 1030.20 1063.08 1063.08
 1106.46 1142.05 1142.05 1214.06 1214.06 1287.13 1287.13 1290.33 1297.52
 1336.68 1336.68 1386.72 1518.81 1519.40 1531.84


--------------------------------------------------------------------------------
  K point      3 =   0.062500  0.062500  0.312500  Weight =    0.004
--------------------------------------------------------------------------------

  Frequencies (cm-1) [NB: Negative implies an imaginary mode]:

  400.24  410.98  521.10  832.56  837.50  984.54 1029.45 1029.45 1075.52
 1075.52 1100.45 1100.45 1192.51 1192.51 1316.82 1316.82 1352.59 1352.59
 1357.11 1361.64 1439.36 1496.30 1496.31 1522.17


--------------------------------------------------------------------------------
  K point      4 =   0.062500  0.062500  0.437500  Weight =    0.004
--------------------------------------------------------------------------------

  Frequencies (cm-1) [NB: Negative implies an imaginary mode]:

  555.15  559.55  687.44  701.16  702.07  843.39 1037.29 1037.29 1065.54
 1065.54 1087.75 1087.75 1177.84 1177.84 1333.37 1333.37 1361.39 1361.39
 1414.95 1417.71 1461.50 1462.71 1478.14 1504.96


--------------------------------------------------------------------------------
  K point      5 =   0.062500  0.062500  0.562500  Weight =    0.004
--------------------------------------------------------------------------------

  Frequencies (cm-1) [NB: Negative implies an imaginary mode]:

  555.15  559.55  687.44  701.16  702.07  843.39 1037.29 1037.29 1065.54
 1065.54 1087.75 1087.75 1177.84 1177.84 1333.37 1333.37 1361.39 1361.39
 1414.95 1417.71 1461.50 1462.71 1478.14 1504.96


--------------------------------------------------------------------------------
  K point      6 =   0.062500  0.062500  0.687500  Weight =    0.004
--------------------------------------------------------------------------------

  Frequencies (cm-1) [NB: Negative implies an imaginary mode]:

  400.24  410.98  521.10  832.56  837.50  984.54 1029.45 1029.45 1075.52
 1075.52 1100.45 1100.45 1192.51 1192.51 1316.82 1316.82 1352.59 1352.59
 1357.11 1361.64 1439.36 1496.30 1496.31 1522.17


--------------------------------------------------------------------------------
  K point      7 =   0.062500  0.062500  0.812500  Weight =    0.004
--------------------------------------------------------------------------------

  Frequencies (cm-1) [NB: Negative implies an imaginary mode]:

  244.56  260.22  351.18  949.48  957.58 1030.20 1030.20 1063.08 1063.08
 1106.46 1142.05 1142.05 1214.06 1214.06 1287.13 1287.13 1290.33 1297.52
 1336.68 1336.68 1386.72 1518.81 1519.40 1531.84


--------------------------------------------------------------------------------
  K point      8 =   0.062500  0.062500  0.937500  Weight =    0.004
--------------------------------------------------------------------------------

  Frequencies (cm-1) [NB: Negative implies an imaginary mode]:

  124.74  124.74  195.67 1037.84 1037.84 1037.84 1049.58 1049.58 1049.58
 1186.57 1186.57 1186.57 1227.36 1227.36 1227.36 1255.06 1255.06 1255.06
 1320.91 1320.91 1320.91 1530.90 1530.90 1535.29


--------------------------------------------------------------------------------
  K point      9 =   0.062500  0.187500  0.062500  Weight =    0.004
--------------------------------------------------------------------------------

  Frequencies (cm-1) [NB: Negative implies an imaginary mode]:

  244.56  260.22  351.18  949.48  957.58 1030.20 1030.20 1063.08 1063.08
 1106.46 1142.05 1142.05 1214.06 1214.06 1287.13 1287.13 1290.33 1297.52
 1336.68 1336.68 1386.72 1518.81 1519.40 1531.84


--------------------------------------------------------------------------------
  K point     10 =   0.062500  0.187500  0.187500  Weight =    0.004
--------------------------------------------------------------------------------

  Frequencies (cm-1) [NB: Negative implies an imaginary mode]:

  292.86  342.73  468.95  947.43  947.43  971.66  971.66  996.22 1082.07
 1084.18 1084.18 1115.84 1244.22 1260.42 1284.21 1284.21 1320.97 1320.97
 1363.96 1382.17 1382.17 1504.86 1508.85 1529.62


--------------------------------------------------------------------------------
  K point     11 =   0.062500  0.187500  0.312500  Weight =    0.004
--------------------------------------------------------------------------------

  Frequencies (cm-1) [NB: Negative implies an imaginary mode]:

  408.45  467.01  607.99  829.41  857.67  948.40  969.00  990.21  990.75
 1064.02 1066.08 1102.55 1234.83 1271.42 1290.26 1348.83 1350.10 1372.15
 1373.53 1382.37 1429.44 1481.52 1488.38 1519.27


--------------------------------------------------------------------------------
  K point     12 =   0.062500  0.187500  0.437500  Weight =    0.004
--------------------------------------------------------------------------------

  Frequencies (cm-1) [NB: Negative implies an imaginary mode]:

  549.64  600.85  693.64  732.88  746.31  875.45  949.05  953.52 1013.04
 1038.30 1064.43 1083.32 1239.55 1255.02 1323.62 1348.56 1378.47 1387.15
 1405.16 1419.40 1448.74 1458.34 1469.18 1499.28


--------------------------------------------------------------------------------
  K point     13 =   0.062500  0.187500  0.562500  Weight =    0.004
--------------------------------------------------------------------------------

  Frequencies (cm-1) [NB: Negative implies an imaginary mode]:

  549.64  600.85  693.64  732.88  746.31  875.45  949.05  953.52 1013.04
 1038.30 1064.43 1083.32 1239.55 1255.02 1323.62 1348.56 1378.47 1387.15
 1405.16 1419.40 1448.74 1458.34 1469.18 1499.28


--------------------------------------------------------------------------------
  K point     14 =   0.062500  0.187500  0.687500  Weight =    0.004
--------------------------------------------------------------------------------

  Frequencies (cm-1) [NB: Negative implies an imaginary mode]:

  408.45  467.01  607.99  829.41  857.67  948.40  969.00  990.21  990.75
 1064.02 1066.08 1102.55 1234.83 1271.42 1290.26 1348.83 1350.10 1372.15
 1373.53 1382.37 1429.44 1481.52 1488.38 1519.27


--------------------------------------------------------------------------------
  K point     15 =   0.062500  0.187500  0.812500  Weight =    0.004
--------------------------------------------------------------------------------

  Frequencies (cm-1) [NB: Negative implies an imaginary mode]:

  292.86  342.73  468.95  947.43  947.43  971.66  971.66  996.22 1082.07
 1084.18 1084.18 1115.84 1244.22 1260.42 1284.21 1284.21 1320.97 1320.97
 1363.96 1382.17 1382.17 1504.86 1508.85 1529.62


--------------------------------------------------------------------------------
  K point     16 =   0.062500  0.187500  0.937500  Weight =    0.004
--------------------------------------------------------------------------------

  Frequencies (cm-1) [NB: Negative implies an imaginary mode]:

  244.56  260.22  351.18  949.48  957.58 1030.20 1030.20 1063.08 1063.08
 1106.46 1142.05 1142.05 1214.06 1214.06 1287.13 1287.13 1290.33 1297.52
 1336.68 1336.68 1386.72 1518.81 1519.40 1531.84


--------------------------------------------------------------------------------
  K point     17 =   0.062500  0.312500  0.062500  Weight =    0.004
--------------------------------------------------------------------------------

  Frequencies (cm-1) [NB: Negative implies an imaginary mode]:

  400.24  410.98  521.10  832.56  837.50  984.54 1029.45 1029.45 1075.52
 1075.52 1100.45 1100.45 1192.51 1192.51 1316.82 1316.82 1352.59 1352.59
 1357.11 1361.64 1439.36 1496.30 1496.31 1522.17


--------------------------------------------------------------------------------
  K point     18 =   0.062500  0.312500  0.187500  Weight =    0.004
--------------------------------------------------------------------------------

  Frequencies (cm-1) [NB: Negative implies an imaginary mode]:

  408.45  467.01  607.99  829.41  857.67  948.40  969.00  990.21  990.75
 1064.02 1066.08 1102.55 1234.83 1271.42 1290.26 1348.83 1350.10 1372.15
 1373.53 1382.37 1429.44 1481.52 1488.38 1519.27


--------------------------------------------------------------------------------
  K point     19 =   0.062500  0.312500  0.312500  Weight =    0.004
--------------------------------------------------------------------------------

  Frequencies (cm-1) [NB: Negative implies an imaginary mode]:

  469.99  563.14  715.38  828.43  828.43  895.66  895.66  911.46 1002.44
 1002.44 1032.85 1085.91 1281.24 1292.32 1336.54 1336.54 1388.00 1388.00
 1401.30 1409.34 1409.34 1457.53 1472.73 1507.64


--------------------------------------------------------------------------------
  K point     20 =   0.062500  0.312500  0.437500  Weight =    0.004
--------------------------------------------------------------------------------

  Frequencies (cm-1) [NB: Negative implies an imaginary mode]:

  574.66  674.94  699.53  788.60  822.38  838.83  866.41  919.97  943.97
  992.40 1022.57 1052.15 1298.34 1318.20 1338.37 1378.86 1386.93 1401.77
 1407.42 1421.42 1426.27 1449.99 1450.49 1484.69


--------------------------------------------------------------------------------
  K point     21 =   0.062500  0.312500  0.562500  Weight =    0.004
--------------------------------------------------------------------------------

  Frequencies (cm-1) [NB: Negative implies an imaginary mode]:

  574.66  674.94  699.53  788.60  822.38  838.83  866.41  919.97  943.97
  992.40 1022.57 1052.15 1298.34 1318.20 1338.37 1378.86 1386.93 1401.77
 1407.42 1421.42 1426.27 1449.99 1450.49 1484.69


--------------------------------------------------------------------------------
  K point     22 =   0.062500  0.312500  0.687500  Weight =    0.004
--------------------------------------------------------------------------------

  Frequencies (cm-1) [NB: Negative implies an imaginary mode]:

  469.99  563.14  715.38  828.43  828.43  895.66  895.66  911.46 1002.44
 1002.44 1032.85 1085.91 1281.24 1292.32 1336.54 1336.54 1388.00 1388.00
 1401.30 1409.34 1409.34 1457.53 1472.73 1507.64


--------------------------------------------------------------------------------
  K point     23 =   0.062500  0.312500  0.812500  Weight =    0.004
--------------------------------------------------------------------------------

  Frequencies (cm-1) [NB: Negative implies an imaginary mode]:

  408.45  467.01  607.99  829.41  857.67  948.40  969.00  990.21  990.75
 1064.02 1066.08 1102.55 1234.83 1271.42 1290.26 1348.83 1350.10 1372.15
 1373.53 1382.37 1429.44 1481.52 1488.38 1519.27


--------------------------------------------------------------------------------
  K point     24 =   0.062500  0.312500  0.937500  Weight =    0.004
--------------------------------------------------------------------------------

  Frequencies (cm-1) [NB: Negative implies an imaginary mode]:

  400.24  410.98  521.10  832.56  837.50  984.54 1029.45 1029.45 1075.52
 1075.52 1100.45 1100.45 1192.51 1192.51 1316.82 1316.82 1352.59 1352.59
 1357.11 1361.64 1439.36 1496.30 1496.31 1522.17


--------------------------------------------------------------------------------
  K point     25 =   0.062500  0.437500  0.062500  Weight =    0.004
--------------------------------------------------------------------------------

  Frequencies (cm-1) [NB: Negative implies an imaginary mode]:

  555.15  559.55  687.44  701.16  702.07  843.39 1037.29 1037.29 1065.54
 1065.54 1087.75 1087.75 1177.84 1177.84 1333.37 1333.37 1361.39 1361.39
 1414.95 1417.71 1461.50 1462.71 1478.14 1504.96


--------------------------------------------------------------------------------
  K point     26 =   0.062500  0.437500  0.187500  Weight =    0.004
--------------------------------------------------------------------------------

  Frequencies (cm-1) [NB: Negative implies an imaginary mode]:

  549.64  600.85  693.64  732.88  746.31  875.45  949.05  953.52 1013.04
 1038.30 1064.43 1083.32 1239.55 1255.02 1323.62 1348.56 1378.47 1387.15
 1405.16 1419.40 1448.74 1458.34 1469.18 1499.28


--------------------------------------------------------------------------------
  K point     27 =   0.062500  0.437500  0.312500  Weight =    0.004
--------------------------------------------------------------------------------

  Frequencies (cm-1) [NB: Negative implies an imaginary mode]:

  574.66  674.94  699.53  788.60  822.38  838.83  866.41  919.97  943.97
  992.40 1022.57 1052.15 1298.34 1318.20 1338.37 1378.86 1386.93 1401.77
 1407.42 1421.42 1426.27 1449.99 1450.49 1484.69


--------------------------------------------------------------------------------
  K point     28 =   0.062500  0.437500  0.437500  Weight =    0.004
--------------------------------------------------------------------------------

  Frequencies (cm-1) [NB: Negative implies an imaginary mode]:

  638.59  731.22  731.22  765.08  789.07  858.23  858.23  898.10  929.99
  966.12  966.12 1010.63 1335.13 1362.89 1362.89 1377.68 1397.42 1415.08
 1415.08 1419.57 1427.08 1427.08 1436.76 1459.25


--------------------------------------------------------------------------------
  K point     29 =   0.062500  0.437500  0.562500  Weight =    0.004
--------------------------------------------------------------------------------

  Frequencies (cm-1) [NB: Negative implies an imaginary mode]:

  638.59  731.22  731.22  765.08  789.07  858.23  858.23  898.10  929.99
  966.12  966.12 1010.63 1335.13 1362.89 1362.89 1377.68 1397.42 1415.08
 1415.08 1419.57 1427.08 1427.08 1436.76 1459.25


--------------------------------------------------------------------------------
  K point     30 =   0.062500  0.437500  0.687500  Weight =    0.004
--------------------------------------------------------------------------------

  Frequencies (cm-1) [NB: Negative implies an imaginary mode]:

  574.66  674.94  699.53  788.60  822.38  838.83  866.41  919.97  943.97
  992.40 1022.57 1052.15 1298.34 1318.20 1338.37 1378.86 1386.93 1401.77
 1407.42 1421.42 1426.27 1449.99 1450.49 1484.69


--------------------------------------------------------------------------------
  K point     31 =   0.062500  0.437500  0.812500  Weight =    0.004
--------------------------------------------------------------------------------

  Frequencies (cm-1) [NB: Negative implies an imaginary mode]:

  549.64  600.85  693.64  732.88  746.31  875.45  949.05  953.52 1013.04
 1038.30 1064.43 1083.32 1239.55 1255.02 1323.62 1348.56 1378.47 1387.15
 1405.16 1419.40 1448.74 1458.34 1469.18 1499.28


--------------------------------------------------------------------------------
  K point     32 =   0.062500  0.437500  0.937500  Weight =    0.004
--------------------------------------------------------------------------------

  Frequencies (cm-1) [NB: Negative implies an imaginary mode]:

  555.15  559.55  687.44  701.16  702.07  843.39 1037.29 1037.29 1065.54
 1065.54 1087.75 1087.75 1177.84 1177.84 1333.37 1333.37 1361.39 1361.39
 1414.95 1417.71 1461.50 1462.71 1478.14 1504.96


--------------------------------------------------------------------------------
  K point     33 =   0.062500  0.562500  0.062500  Weight =    0.004
--------------------------------------------------------------------------------

  Frequencies (cm-1) [NB: Negative implies an imaginary mode]:

  555.15  559.55  687.44  701.16  702.07  843.39 1037.29 1037.29 1065.54
 1065.54 1087.75 1087.75 1177.84 1177.84 1333.37 1333.37 1361.39 1361.39
 1414.95 1417.71 1461.50 1462.71 1478.14 1504.96


--------------------------------------------------------------------------------
  K point     34 =   0.062500  0.562500  0.187500  Weight =    0.004
--------------------------------------------------------------------------------

  Frequencies (cm-1) [NB: Negative implies an imaginary mode]:

  549.64  600.85  693.64  732.88  746.31  875.45  949.05  953.52 1013.04
 1038.30 1064.43 1083.32 1239.55 1255.02 1323.62 1348.56 1378.47 1387.15
 1405.16 1419.40 1448.74 1458.34 1469.18 1499.28


--------------------------------------------------------------------------------
  K point     35 =   0.062500  0.562500  0.312500  Weight =    0.004
--------------------------------------------------------------------------------

  Frequencies (cm-1) [NB: Negative implies an imaginary mode]:

  574.66  674.94  699.53  788.60  822.38  838.83  866.41  919.97  943.97
  992.40 1022.57 1052.15 1298.34 1318.20 1338.37 1378.86 1386.93 1401.77
 1407.42 1421.42 1426.27 1449.99 1450.49 1484.69


--------------------------------------------------------------------------------
  K point     36 =   0.062500  0.562500  0.437500  Weight =    0.004
--------------------------------------------------------------------------------

  Frequencies (cm-1) [NB: Negative implies an imaginary mode]:

  638.59  731.22  731.22  765.08  789.07  858.23  858.23  898.10  929.99
  966.12  966.12 1010.63 1335.13 1362.89 1362.89 1377.68 1397.42 1415.08
 1415.08 1419.57 1427.08 1427.08 1436.76 1459.25


--------------------------------------------------------------------------------
  K point     37 =   0.062500  0.562500  0.562500  Weight =    0.004
--------------------------------------------------------------------------------

  Frequencies (cm-1) [NB: Negative implies an imaginary mode]:

  638.59  731.22  731.22  765.08  789.07  858.23  858.23  898.10  929.99
  966.12  966.12 1010.63 1335.13 1362.89 1362.89 1377.68 1397.42 1415.08
 1415.08 1419.57 1427.08 1427.08 1436.76 1459.25


--------------------------------------------------------------------------------
  K point     38 =   0.062500  0.562500  0.687500  Weight =    0.004
--------------------------------------------------------------------------------

  Frequencies (cm-1) [NB: Negative implies an imaginary mode]:

  574.66  674.94  699.53  788.60  822.38  838.83  866.41  919.97  943.97
  992.40 1022.57 1052.15 1298.34 1318.20 1338.37 1378.86 1386.93 1401.77
 1407.42 1421.42 1426.27 1449.99 1450.49 1484.69


--------------------------------------------------------------------------------
  K point     39 =   0.062500  0.562500  0.812500  Weight =    0.004
--------------------------------------------------------------------------------

  Frequencies (cm-1) [NB: Negative implies an imaginary mode]:

  549.64  600.85  693.64  732.88  746.31  875.45  949.05  953.52 1013.04
 1038.30 1064.43 1083.32 1239.55 1255.02 1323.62 1348.56 1378.47 1387.15
 1405.16 1419.40 1448.74 1458.34 1469.18 1499.28


--------------------------------------------------------------------------------
  K point     40 =   0.062500  0.562500  0.937500  Weight =    0.004
--------------------------------------------------------------------------------

  Frequencies (cm-1) [NB: Negative implies an imaginary mode]:

  555.15  559.55  687.44  701.16  702.07  843.39 1037.29 1037.29 1065.54
 1065.54 1087.75 1087.75 1177.84 1177.84 1333.37 1333.37 1361.39 1361.39
 1414.95 1417.71 1461.50 1462.71 1478.14 1504.96


--------------------------------------------------------------------------------
  K point     41 =   0.062500  0.687500  0.062500  Weight =    0.004
--------------------------------------------------------------------------------

  Frequencies (cm-1) [NB: Negative implies an imaginary mode]:

  400.24  410.98  521.10  832.56  837.50  984.54 1029.45 1029.45 1075.52
 1075.52 1100.45 1100.45 1192.51 1192.51 1316.82 1316.82 1352.59 1352.59
 1357.11 1361.64 1439.36 1496.30 1496.31 1522.17


--------------------------------------------------------------------------------
  K point     42 =   0.062500  0.687500  0.187500  Weight =    0.004
--------------------------------------------------------------------------------

  Frequencies (cm-1) [NB: Negative implies an imaginary mode]:

  408.45  467.01  607.99  829.41  857.67  948.40  969.00  990.21  990.75
 1064.02 1066.08 1102.55 1234.83 1271.42 1290.26 1348.83 1350.10 1372.15
 1373.53 1382.37 1429.44 1481.52 1488.38 1519.27


--------------------------------------------------------------------------------
  K point     43 =   0.062500  0.687500  0.312500  Weight =    0.004
--------------------------------------------------------------------------------

  Frequencies (cm-1) [NB: Negative implies an imaginary mode]:

  469.99  563.14  715.38  828.43  828.43  895.66  895.66  911.46 1002.44
 1002.44 1032.85 1085.91 1281.24 1292.32 1336.54 1336.54 1388.00 1388.00
 1401.30 1409.34 1409.34 1457.53 1472.73 1507.64


--------------------------------------------------------------------------------
  K point     44 =   0.062500  0.687500  0.437500  Weight =    0.004
--------------------------------------------------------------------------------

  Frequencies (cm-1) [NB: Negative implies an imaginary mode]:

  574.66  674.94  699.53  788.60  822.38  838.83  866.41  919.97  943.97
  992.40 1022.57 1052.15 1298.34 1318.20 1338.37 1378.86 1386.93 1401.77
 1407.42 1421.42 1426.27 1449.99 1450.49 1484.69


--------------------------------------------------------------------------------
  K point     45 =   0.062500  0.687500  0.562500  Weight =    0.004
--------------------------------------------------------------------------------

  Frequencies (cm-1) [NB: Negative implies an imaginary mode]:

  574.66  674.94  699.53  788.60  822.38  838.83  866.41  919.97  943.97
  992.40 1022.57 1052.15 1298.34 1318.20 1338.37 1378.86 1386.93 1401.77
 1407.42 1421.42 1426.27 1449.99 1450.49 1484.69


--------------------------------------------------------------------------------
  K point     46 =   0.062500  0.687500  0.687500  Weight =    0.004
--------------------------------------------------------------------------------

  Frequencies (cm-1) [NB: Negative implies an imaginary mode]:

  469.99  563.14  715.38  828.43  828.43  895.66  895.66  911.46 1002.44
 1002.44 1032.85 1085.91 1281.24 1292.32 1336.54 1336.54 1388.00 1388.00
 1401.30 1409.34 1409.34 1457.53 1472.73 1507.64


--------------------------------------------------------------------------------
  K point     47 =   0.062500  0.687500  0.812500  Weight =    0.004
--------------------------------------------------------------------------------

  Frequencies (cm-1) [NB: Negative implies an imaginary mode]:

  408.45  467.01  607.99  829.41  857.67  948.40  969.00  990.21  990.75
 1064.02 1066.08 1102.55 1234.83 1271.42 1290.26 1348.83 1350.10 1372.15
 1373.53 1382.37 1429.44 1481.52 1488.38 1519.27


--------------------------------------------------------------------------------
  K point     48 =   0.062500  0.687500  0.937500  Weight =    0.004
--------------------------------------------------------------------------------

  Frequencies (cm-1) [NB: Negative implies an imaginary mode]:

  400.24  410.98  521.10  832.56  837.50  984.54 1029.45 1029.45 1075.52
 1075.52 1100.45 1100.45 1192.51 1192.51 1316.82 1316.82 1352.59 1352.59
 1357.11 1361.64 1439.36 1496.30 1496.31 1522.17


--------------------------------------------------------------------------------
  K point     49 =   0.062500  0.812500  0.062500  Weight =    0.004
--------------------------------------------------------------------------------

  Frequencies (cm-1) [NB: Negative implies an imaginary mode]:

  244.56  260.22  351.18  949.48  957.58 1030.20 1030.20 1063.08 1063.08
 1106.46 1142.05 1142.05 1214.06 1214.06 1287.13 1287.13 1290.33 1297.52
 1336.68 1336.68 1386.72 1518.81 1519.40 1531.84


--------------------------------------------------------------------------------
  K point     50 =   0.062500  0.812500  0.187500  Weight =    0.004
--------------------------------------------------------------------------------

  Frequencies (cm-1) [NB: Negative implies an imaginary mode]:

  292.86  342.73  468.95  947.43  947.43  971.66  971.66  996.22 1082.07
 1084.18 1084.18 1115.84 1244.22 1260.42 1284.21 1284.21 1320.97 1320.97
 1363.96 1382.17 1382.17 1504.86 1508.85 1529.62


--------------------------------------------------------------------------------
  K point     51 =   0.062500  0.812500  0.312500  Weight =    0.004
--------------------------------------------------------------------------------

  Frequencies (cm-1) [NB: Negative implies an imaginary mode]:

  408.45  467.01  607.99  829.41  857.67  948.40  969.00  990.21  990.75
 1064.02 1066.08 1102.55 1234.83 1271.42 1290.26 1348.83 1350.10 1372.15
 1373.53 1382.37 1429.44 1481.52 1488.38 1519.27


--------------------------------------------------------------------------------
  K point     52 =   0.062500  0.812500  0.437500  Weight =    0.004
--------------------------------------------------------------------------------

  Frequencies (cm-1) [NB: Negative implies an imaginary mode]:

  549.64  600.85  693.64  732.88  746.31  875.45  949.05  953.52 1013.04
 1038.30 1064.43 1083.32 1239.55 1255.02 1323.62 1348.56 1378.47 1387.15
 1405.16 1419.40 1448.74 1458.34 1469.18 1499.28


--------------------------------------------------------------------------------
  K point     53 =   0.062500  0.812500  0.562500  Weight =    0.004
--------------------------------------------------------------------------------

  Frequencies (cm-1) [NB: Negative implies an imaginary mode]:

  549.64  600.85  693.64  732.88  746.31  875.45  949.05  953.52 1013.04
 1038.30 1064.43 1083.32 1239.55 1255.02 1323.62 1348.56 1378.47 1387.15
 1405.16 1419.40 1448.74 1458.34 1469.18 1499.28


--------------------------------------------------------------------------------
  K point     54 =   0.062500  0.812500  0.687500  Weight =    0.004
--------------------------------------------------------------------------------

  Frequencies (cm-1) [NB: Negative implies an imaginary mode]:

  408.45  467.01  607.99  829.41  857.67  948.40  969.00  990.21  990.75
 1064.02 1066.08 1102.55 1234.83 1271.42 1290.26 1348.83 1350.10 1372.15
 1373.53 1382.37 1429.44 1481.52 1488.38 1519.27


--------------------------------------------------------------------------------
  K point     55 =   0.062500  0.812500  0.812500  Weight =    0.004
--------------------------------------------------------------------------------

  Frequencies (cm-1) [NB: Negative implies an imaginary mode]:

  292.86  342.73  468.95  947.43  947.43  971.66  971.66  996.22 1082.07
 1084.18 1084.18 1115.84 1244.22 1260.42 1284.21 1284.21 1320.97 1320.97
 1363.96 1382.17 1382.17 1504.86 1508.85 1529.62


--------------------------------------------------------------------------------
  K point     56 =   0.062500  0.812500  0.937500  Weight =    0.004
--------------------------------------------------------------------------------

  Frequencies (cm-1) [NB: Negative implies an imaginary mode]:

  244.56  260.22  351.18  949.48  957.58 1030.20 1030.20 1063.08 1063.08
 1106.46 1142.05 1142.05 1214.06 1214.06 1287.13 1287.13 1290.33 1297.52
 1336.68 1336.68 1386.72 1518.81 1519.40 1531.84


--------------------------------------------------------------------------------
  K point     57 =   0.062500  0.937500  0.062500  Weight =    0.004
--------------------------------------------------------------------------------

  Frequencies (cm-1) [NB: Negative implies an imaginary mode]:

  124.74  124.74  195.67 1037.84 1037.84 1037.84 1049.58 1049.58 1049.58
 1186.57 1186.57 1186.57 1227.36 1227.36 1227.36 1255.06 1255.06 1255.06
 1320.91 1320.91 1320.91 1530.90 1530.90 1535.29


--------------------------------------------------------------------------------
  K point     58 =   0.062500  0.937500  0.187500  Weight =    0.004
--------------------------------------------------------------------------------

  Frequencies (cm-1) [NB: Negative implies an imaginary mode]:

  244.56  260.22  351.18  949.48  957.58 1030.20 1030.20 1063.08 1063.08
 1106.46 1142.05 1142.05 1214.06 1214.06 1287.13 1287.13 1290.33 1297.52
 1336.68 1336.68 1386.72 1518.81 1519.40 1531.84


--------------------------------------------------------------------------------
  K point     59 =   0.062500  0.937500  0.312500  Weight =    0.004
--------------------------------------------------------------------------------

  Frequencies (cm-1) [NB: Negative implies an imaginary mode]:

  400.24  410.98  521.10  832.56  837.50  984.54 1029.45 1029.45 1075.52
 1075.52 1100.45 1100.45 1192.51 1192.51 1316.82 1316.82 1352.59 1352.59
 1357.11 1361.64 1439.36 1496.30 1496.31 1522.17


--------------------------------------------------------------------------------
  K point     60 =   0.062500  0.937500  0.437500  Weight =    0.004
--------------------------------------------------------------------------------

  Frequencies (cm-1) [NB: Negative implies an imaginary mode]:

  555.15  559.55  687.44  701.16  702.07  843.39 1037.29 1037.29 1065.54
 1065.54 1087.75 1087.75 1177.84 1177.84 1333.37 1333.37 1361.39 1361.39
 1414.95 1417.71 1461.50 1462.71 1478.14 1504.96


--------------------------------------------------------------------------------
  K point     61 =   0.062500  0.937500  0.562500  Weight =    0.004
--------------------------------------------------------------------------------

  Frequencies (cm-1) [NB: Negative implies an imaginary mode]:

  555.15  559.55  687.44  701.16  702.07  843.39 1037.29 1037.29 1065.54
 1065.54 1087.75 1087.75 1177.84 1177.84 1333.37 1333.37 1361.39 1361.39
 1414.95 1417.71 1461.50 1462.71 1478.14 1504.96


--------------------------------------------------------------------------------
  K point     62 =   0.062500  0.937500  0.687500  Weight =    0.004
--------------------------------------------------------------------------------

  Frequencies (cm-1) [NB: Negative implies an imaginary mode]:

  400.24  410.98  521.10  832.56  837.50  984.54 1029.45 1029.45 1075.52
 1075.52 1100.45 1100.45 1192.51 1192.51 1316.82 1316.82 1352.59 1352.59
 1357.11 1361.64 1439.36 1496.30 1496.31 1522.17


--------------------------------------------------------------------------------
  K point     63 =   0.062500  0.937500  0.812500  Weight =    0.004
--------------------------------------------------------------------------------

  Frequencies (cm-1) [NB: Negative implies an imaginary mode]:

  244.56  260.22  351.18  949.48  957.58 1030.20 1030.20 1063.08 1063.08
 1106.46 1142.05 1142.05 1214.06 1214.06 1287.13 1287.13 1290.33 1297.52
 1336.68 1336.68 1386.72 1518.81 1519.40 1531.84


--------------------------------------------------------------------------------
  K point     64 =   0.062500  0.937500  0.937500  Weight =    0.004
--------------------------------------------------------------------------------

  Frequencies (cm-1) [NB: Negative implies an imaginary mode]:

  124.74  124.74  195.67 1037.84 1037.84 1037.84 1049.58 1049.58 1049.58
 1186.57 1186.57 1186.57 1227.36 1227.36 1227.36 1255.06 1255.06 1255.06
 1320.91 1320.91 1320.91 1530.90 1530.90 1535.29


--------------------------------------------------------------------------------
  K point     65 =   0.187500  0.062500  0.062500  Weight =    0.004
--------------------------------------------------------------------------------

  Frequencies (cm-1) [NB: Negative implies an imaginary mode]:

  244.56  260.22  351.18  949.48  957.58 1030.20 1030.20 1063.08 1063.08
 1106.46 1142.05 1142.05 1214.06 1214.06 1287.13 1287.13 1290.33 1297.52
 1336.68 1336.68 1386.72 1518.81 1519.40 1531.84


--------------------------------------------------------------------------------
  K point     66 =   0.187500  0.062500  0.187500  Weight =    0.004
--------------------------------------------------------------------------------

  Frequencies (cm-1) [NB: Negative implies an imaginary mode]:

  292.86  342.73  468.95  947.43  947.43  971.66  971.66  996.22 1082.07
 1084.18 1084.18 1115.84 1244.22 1260.42 1284.21 1284.21 1320.97 1320.97
 1363.96 1382.17 1382.17 1504.86 1508.85 1529.62


--------------------------------------------------------------------------------
  K point     67 =   0.187500  0.062500  0.312500  Weight =    0.004
--------------------------------------------------------------------------------

  Frequencies (cm-1) [NB: Negative implies an imaginary mode]:

  408.45  467.01  607.99  829.41  857.67  948.40  969.00  990.21  990.75
 1064.02 1066.08 1102.55 1234.83 1271.42 1290.26 1348.83 1350.10 1372.15
 1373.53 1382.37 1429.44 1481.52 1488.38 1519.27


--------------------------------------------------------------------------------
  K point     68 =   0.187500  0.062500  0.437500  Weight =    0.004
--------------------------------------------------------------------------------

  Frequencies (cm-1) [NB: Negative implies an imaginary mode]:

  549.64  600.85  693.64  732.88  746.31  875.45  949.05  953.52 1013.04
 1038.30 1064.43 1083.32 1239.55 1255.02 1323.62 1348.56 1378.47 1387.15
 1405.16 1419.40 1448.74 1458.34 1469.18 1499.28


--------------------------------------------------------------------------------
  K point     69 =   0.187500  0.062500  0.562500  Weight =    0.004
--------------------------------------------------------------------------------

  Frequencies (cm-1) [NB: Negative implies an imaginary mode]:

  549.64  600.85  693.64  732.88  746.31  875.45  949.05  953.52 1013.04
 1038.30 1064.43 1083.32 1239.55 1255.02 1323.62 1348.56 1378.47 1387.15
 1405.16 1419.40 1448.74 1458.34 1469.18 1499.28


--------------------------------------------------------------------------------
  K point     70 =   0.187500  0.062500  0.687500  Weight =    0.004
--------------------------------------------------------------------------------

  Frequencies (cm-1) [NB: Negative implies an imaginary mode]:

  408.45  467.01  607.99  829.41  857.67  948.40  969.00  990.21  990.75
 1064.02 1066.08 1102.55 1234.83 1271.42 1290.26 1348.83 1350.10 1372.15
 1373.53 1382.37 1429.44 1481.52 1488.38 1519.27


--------------------------------------------------------------------------------
  K point     71 =   0.187500  0.062500  0.812500  Weight =    0.004
--------------------------------------------------------------------------------

  Frequencies (cm-1) [NB: Negative implies an imaginary mode]:

  292.86  342.73  468.95  947.43  947.43  971.66  971.66  996.22 1082.07
 1084.18 1084.18 1115.84 1244.22 1260.42 1284.21 1284.21 1320.97 1320.97
 1363.96 1382.17 1382.17 1504.86 1508.85 1529.62


--------------------------------------------------------------------------------
  K point     72 =   0.187500  0.062500  0.937500  Weight =    0.004
--------------------------------------------------------------------------------

  Frequencies (cm-1) [NB: Negative implies an imaginary mode]:

  244.56  260.22  351.18  949.48  957.58 1030.20 1030.20 1063.08 1063.08
 1106.46 1142.05 1142.05 1214.06 1214.06 1287.13 1287.13 1290.33 1297.52
 1336.68 1336.68 1386.72 1518.81 1519.40 1531.84


--------------------------------------------------------------------------------
  K point     73 =   0.187500  0.187500  0.062500  Weight =    0.004
--------------------------------------------------------------------------------

  Frequencies (cm-1) [NB: Negative implies an imaginary mode]:

  292.86  342.73  468.95  947.43  947.43  971.66  971.66  996.22 1082.07
 1084.18 1084.18 1115.84 1244.22 1260.42 1284.21 1284.21 1320.97 1320.97
 1363.96 1382.17 1382.17 1504.86 1508.85 1529.62


--------------------------------------------------------------------------------
  K point     74 =   0.187500  0.187500  0.187500  Weight =    0.004
--------------------------------------------------------------------------------

  Frequencies (cm-1) [NB: Negative implies an imaginary mode]:

  363.99  363.99  567.15  927.89  927.89  927.89  980.66  980.66  980.66
 1079.51 1079.51 1079.51 1290.38 1290.38 1290.38 1322.50 1322.50 1322.50
 1385.50 1385.50 1385.50 1494.11 1494.11 1528.59


--------------------------------------------------------------------------------
  K point     75 =   0.187500  0.187500  0.312500  Weight =    0.004
--------------------------------------------------------------------------------

  Frequencies (cm-1) [NB: Negative implies an imaginary mode]:

  450.74  472.25  688.46  828.25  853.75  913.21  913.21  974.55  974.55
 1009.95 1081.77 1081.77 1286.93 1286.93 1336.10 1336.10 1346.60 1376.95
 1387.96 1387.96 1422.18 1472.24 1472.61 1518.77


--------------------------------------------------------------------------------
  K point     76 =   0.187500  0.187500  0.437500  Weight =    0.004
--------------------------------------------------------------------------------

  Frequencies (cm-1) [NB: Negative implies an imaginary mode]:

  576.64  593.01  714.10  715.83  808.68  906.33  906.33  917.83  964.51
  964.51 1087.21 1087.21 1281.31 1281.31 1349.21 1349.21 1387.75 1387.75
 1398.01 1415.18 1440.45 1445.82 1463.71 1497.29


--------------------------------------------------------------------------------
  K point     77 =   0.187500  0.187500  0.562500  Weight =    0.004
--------------------------------------------------------------------------------

  Frequencies (cm-1) [NB: Negative implies an imaginary mode]:

  576.64  593.01  714.10  715.83  808.68  906.33  906.33  917.83  964.51
  964.51 1087.21 1087.21 1281.31 1281.31 1349.21 1349.21 1387.75 1387.75
 1398.01 1415.18 1440.45 1445.82 1463.71 1497.29


--------------------------------------------------------------------------------
  K point     78 =   0.187500  0.187500  0.687500  Weight =    0.004
--------------------------------------------------------------------------------

  Frequencies (cm-1) [NB: Negative implies an imaginary mode]:

  450.74  472.25  688.46  828.25  853.75  913.21  913.21  974.55  974.55
 1009.95 1081.77 1081.77 1286.93 1286.93 1336.10 1336.10 1346.60 1376.95
 1387.96 1387.96 1422.18 1472.24 1472.61 1518.77


--------------------------------------------------------------------------------
  K point     79 =   0.187500  0.187500  0.812500  Weight =    0.004
--------------------------------------------------------------------------------

  Frequencies (cm-1) [NB: Negative implies an imaginary mode]:

  363.99  363.99  567.15  927.89  927.89  927.89  980.66  980.66  980.66
 1079.51 1079.51 1079.51 1290.38 1290.38 1290.38 1322.50 1322.50 1322.50
 1385.50 1385.50 1385.50 1494.11 1494.11 1528.59


--------------------------------------------------------------------------------
  K point     80 =   0.187500  0.187500  0.937500  Weight =    0.004
--------------------------------------------------------------------------------

  Frequencies (cm-1) [NB: Negative implies an imaginary mode]:

  292.86  342.73  468.95  947.43  947.43  971.66  971.66  996.22 1082.07
 1084.18 1084.18 1115.84 1244.22 1260.42 1284.21 1284.21 1320.97 1320.97
 1363.96 1382.17 1382.17 1504.86 1508.85 1529.62


--------------------------------------------------------------------------------
  K point     81 =   0.187500  0.312500  0.062500  Weight =    0.004
--------------------------------------------------------------------------------

  Frequencies (cm-1) [NB: Negative implies an imaginary mode]:

  408.45  467.01  607.99  829.41  857.67  948.40  969.00  990.21  990.75
 1064.02 1066.08 1102.55 1234.83 1271.42 1290.26 1348.83 1350.10 1372.15
 1373.53 1382.37 1429.44 1481.52 1488.38 1519.27


--------------------------------------------------------------------------------
  K point     82 =   0.187500  0.312500  0.187500  Weight =    0.004
--------------------------------------------------------------------------------

  Frequencies (cm-1) [NB: Negative implies an imaginary mode]:

  450.74  472.25  688.46  828.25  853.75  913.21  913.21  974.55  974.55
 1009.95 1081.77 1081.77 1286.93 1286.93 1336.10 1336.10 1346.60 1376.95
 1387.96 1387.96 1422.18 1472.24 1472.61 1518.77


--------------------------------------------------------------------------------
  K point     83 =   0.187500  0.312500  0.312500  Weight =    0.004
--------------------------------------------------------------------------------

  Frequencies (cm-1) [NB: Negative implies an imaginary mode]:

  505.82  547.08  789.17  822.00  822.00  863.84  863.84  872.61  946.19
 1038.05 1038.05 1092.28 1304.31 1338.01 1338.01 1338.56 1386.02 1386.02
 1397.59 1407.74 1407.74 1448.82 1454.96 1509.36


--------------------------------------------------------------------------------
  K point     84 =   0.187500  0.312500  0.437500  Weight =    0.004
--------------------------------------------------------------------------------

  Frequencies (cm-1) [NB: Negative implies an imaginary mode]:

  597.15  646.98  709.97  753.88  823.60  840.63  885.61  887.22  914.47
  972.18 1065.64 1085.96 1314.62 1326.17 1361.05 1382.96 1386.63 1395.13
 1399.82 1409.50 1419.75 1432.09 1451.51 1487.29


--------------------------------------------------------------------------------
  K point     85 =   0.187500  0.312500  0.562500  Weight =    0.004
--------------------------------------------------------------------------------

  Frequencies (cm-1) [NB: Negative implies an imaginary mode]:

  597.15  646.98  709.97  753.88  823.60  840.63  885.61  887.22  914.47
  972.18 1065.64 1085.96 1314.62 1326.17 1361.05 1382.96 1386.63 1395.13
 1399.82 1409.50 1419.75 1432.09 1451.51 1487.29


--------------------------------------------------------------------------------
  K point     86 =   0.187500  0.312500  0.687500  Weight =    0.004
--------------------------------------------------------------------------------

  Frequencies (cm-1) [NB: Negative implies an imaginary mode]:

  505.82  547.08  789.17  822.00  822.00  863.84  863.84  872.61  946.19
 1038.05 1038.05 1092.28 1304.31 1338.01 1338.01 1338.56 1386.02 1386.02
 1397.59 1407.74 1407.74 1448.82 1454.96 1509.36


--------------------------------------------------------------------------------
  K point     87 =   0.187500  0.312500  0.812500  Weight =    0.004
--------------------------------------------------------------------------------

  Frequencies (cm-1) [NB: Negative implies an imaginary mode]:

  450.74  472.25  688.46  828.25  853.75  913.21  913.21  974.55  974.55
 1009.95 1081.77 1081.77 1286.93 1286.93 1336.10 1336.10 1346.60 1376.95
 1387.96 1387.96 1422.18 1472.24 1472.61 1518.77


--------------------------------------------------------------------------------
  K point     88 =   0.187500  0.312500  0.937500  Weight =    0.004
--------------------------------------------------------------------------------

  Frequencies (cm-1) [NB: Negative implies an imaginary mode]:

  408.45  467.01  607.99  829.41  857.67  948.40  969.00  990.21  990.75
 1064.02 1066.08 1102.55 1234.83 1271.42 1290.26 1348.83 1350.10 1372.15
 1373.53 1382.37 1429.44 1481.52 1488.38 1519.27


--------------------------------------------------------------------------------
  K point     89 =   0.187500  0.437500  0.062500  Weight =    0.004
--------------------------------------------------------------------------------

  Frequencies (cm-1) [NB: Negative implies an imaginary mode]:

  549.64  600.85  693.64  732.88  746.31  875.45  949.05  953.52 1013.04
 1038.30 1064.43 1083.32 1239.55 1255.02 1323.62 1348.56 1378.47 1387.15
 1405.16 1419.40 1448.74 1458.34 1469.18 1499.28


--------------------------------------------------------------------------------
  K point     90 =   0.187500  0.437500  0.187500  Weight =    0.004
--------------------------------------------------------------------------------

  Frequencies (cm-1) [NB: Negative implies an imaginary mode]:

  576.64  593.01  714.10  715.83  808.68  906.33  906.33  917.83  964.51
  964.51 1087.21 1087.21 1281.31 1281.31 1349.21 1349.21 1387.75 1387.75
 1398.01 1415.18 1440.45 1445.82 1463.71 1497.29


--------------------------------------------------------------------------------
  K point     91 =   0.187500  0.437500  0.312500  Weight =    0.004
--------------------------------------------------------------------------------

  Frequencies (cm-1) [NB: Negative implies an imaginary mode]:

  597.15  646.98  709.97  753.88  823.60  840.63  885.61  887.22  914.47
  972.18 1065.64 1085.96 1314.62 1326.17 1361.05 1382.96 1386.63 1395.13
 1399.82 1409.50 1419.75 1432.09 1451.51 1487.29


--------------------------------------------------------------------------------
  K point     92 =   0.187500  0.437500  0.437500  Weight =    0.004
--------------------------------------------------------------------------------

  Frequencies (cm-1) [NB: Negative implies an imaginary mode]:

  649.95  722.53  730.87  730.87  777.23  804.42  804.42  859.96  961.88
 1023.12 1023.12 1062.94 1340.79 1362.97 1362.97 1383.70 1393.39 1400.76
 1400.76 1413.92 1416.23 1432.93 1432.93 1465.92


--------------------------------------------------------------------------------
  K point     93 =   0.187500  0.437500  0.562500  Weight =    0.004
--------------------------------------------------------------------------------

  Frequencies (cm-1) [NB: Negative implies an imaginary mode]:

  649.95  722.53  730.87  730.87  777.23  804.42  804.42  859.96  961.88
 1023.12 1023.12 1062.94 1340.79 1362.97 1362.97 1383.70 1393.39 1400.76
 1400.76 1413.92 1416.23 1432.93 1432.93 1465.92


--------------------------------------------------------------------------------
  K point     94 =   0.187500  0.437500  0.687500  Weight =    0.004
--------------------------------------------------------------------------------

  Frequencies (cm-1) [NB: Negative implies an imaginary mode]:

  597.15  646.98  709.97  753.88  823.60  840.63  885.61  887.22  914.47
  972.18 1065.64 1085.96 1314.62 1326.17 1361.05 1382.96 1386.63 1395.13
 1399.82 1409.50 1419.75 1432.09 1451.51 1487.29


--------------------------------------------------------------------------------
  K point     95 =   0.187500  0.437500  0.812500  Weight =    0.004
--------------------------------------------------------------------------------

  Frequencies (cm-1) [NB: Negative implies an imaginary mode]:

  576.64  593.01  714.10  715.83  808.68  906.33  906.33  917.83  964.51
  964.51 1087.21 1087.21 1281.31 1281.31 1349.21 1349.21 1387.75 1387.75
 1398.01 1415.18 1440.45 1445.82 1463.71 1497.29


--------------------------------------------------------------------------------
  K point     96 =   0.187500  0.437500  0.937500  Weight =    0.004
--------------------------------------------------------------------------------

  Frequencies (cm-1) [NB: Negative implies an imaginary mode]:

  549.64  600.85  693.64  732.88  746.31  875.45  949.05  953.52 1013.04
 1038.30 1064.43 1083.32 1239.55 1255.02 1323.62 1348.56 1378.47 1387.15
 1405.16 1419.40 1448.74 1458.34 1469.18 1499.28


--------------------------------------------------------------------------------
  K point     97 =   0.187500  0.562500  0.062500  Weight =    0.004
--------------------------------------------------------------------------------

  Frequencies (cm-1) [NB: Negative implies an imaginary mode]:

  549.64  600.85  693.64  732.88  746.31  875.45  949.05  953.52 1013.04
 1038.30 1064.43 1083.32 1239.55 1255.02 1323.62 1348.56 1378.47 1387.15
 1405.16 1419.40 1448.74 1458.34 1469.18 1499.28


--------------------------------------------------------------------------------
  K point     98 =   0.187500  0.562500  0.187500  Weight =    0.004
--------------------------------------------------------------------------------

  Frequencies (cm-1) [NB: Negative implies an imaginary mode]:

  576.64  593.01  714.10  715.83  808.68  906.33  906.33  917.83  964.51
  964.51 1087.21 1087.21 1281.31 1281.31 1349.21 1349.21 1387.75 1387.75
 1398.01 1415.18 1440.45 1445.82 1463.71 1497.29


--------------------------------------------------------------------------------
  K point     99 =   0.187500  0.562500  0.312500  Weight =    0.004
--------------------------------------------------------------------------------

  Frequencies (cm-1) [NB: Negative implies an imaginary mode]:

  597.15  646.98  709.97  753.88  823.60  840.63  885.61  887.22  914.47
  972.18 1065.64 1085.96 1314.62 1326.17 1361.05 1382.96 1386.63 1395.13
 1399.82 1409.50 1419.75 1432.09 1451.51 1487.29


--------------------------------------------------------------------------------
  K point    100 =   0.187500  0.562500  0.437500  Weight =    0.004
--------------------------------------------------------------------------------

  Frequencies (cm-1) [NB: Negative implies an imaginary mode]:

  649.95  722.53  730.87  730.87  777.23  804.42  804.42  859.96  961.88
 1023.12 1023.12 1062.94 1340.79 1362.97 1362.97 1383.70 1393.39 1400.76
 1400.76 1413.92 1416.23 1432.93 1432.93 1465.92


--------------------------------------------------------------------------------
  K point    101 =   0.187500  0.562500  0.562500  Weight =    0.004
--------------------------------------------------------------------------------

  Frequencies (cm-1) [NB: Negative implies an imaginary mode]:

  649.95  722.53  730.87  730.87  777.23  804.42  804.42  859.96  961.88
 1023.12 1023.12 1062.94 1340.79 1362.97 1362.97 1383.70 1393.39 1400.76
 1400.76 1413.92 1416.23 1432.93 1432.93 1465.92


--------------------------------------------------------------------------------
  K point    102 =   0.187500  0.562500  0.687500  Weight =    0.004
--------------------------------------------------------------------------------

  Frequencies (cm-1) [NB: Negative implies an imaginary mode]:

  597.15  646.98  709.97  753.88  823.60  840.63  885.61  887.22  914.47
  972.18 1065.64 1085.96 1314.62 1326.17 1361.05 1382.96 1386.63 1395.13
 1399.82 1409.50 1419.75 1432.09 1451.51 1487.29


--------------------------------------------------------------------------------
  K point    103 =   0.187500  0.562500  0.812500  Weight =    0.004
--------------------------------------------------------------------------------

  Frequencies (cm-1) [NB: Negative implies an imaginary mode]:

  576.64  593.01  714.10  715.83  808.68  906.33  906.33  917.83  964.51
  964.51 1087.21 1087.21 1281.31 1281.31 1349.21 1349.21 1387.75 1387.75
 1398.01 1415.18 1440.45 1445.82 1463.71 1497.29


--------------------------------------------------------------------------------
  K point    104 =   0.187500  0.562500  0.937500  Weight =    0.004
--------------------------------------------------------------------------------

  Frequencies (cm-1) [NB: Negative implies an imaginary mode]:

  549.64  600.85  693.64  732.88  746.31  875.45  949.05  953.52 1013.04
 1038.30 1064.43 1083.32 1239.55 1255.02 1323.62 1348.56 1378.47 1387.15
 1405.16 1419.40 1448.74 1458.34 1469.18 1499.28


--------------------------------------------------------------------------------
  K point    105 =   0.187500  0.687500  0.062500  Weight =    0.004
--------------------------------------------------------------------------------

  Frequencies (cm-1) [NB: Negative implies an imaginary mode]:

  408.45  467.01  607.99  829.41  857.67  948.40  969.00  990.21  990.75
 1064.02 1066.08 1102.55 1234.83 1271.42 1290.26 1348.83 1350.10 1372.15
 1373.53 1382.37 1429.44 1481.52 1488.38 1519.27


--------------------------------------------------------------------------------
[...]
--------------------------------------------------------------------------------
  Zero point energy            =        1.666270 eV
  Entropy                      =        0.000001 eV/K
                               =        0.134781 J/(mol.K)
  Helmholtz free-energy        =      -57.270692 eV
                               =    -5525.745844 kJmol-1
  Free energy (equipartition)  =      -58.489878 eV
  - T*S       (equipartition)  =        0.302291 eV
  Uvib        (equipartition)  =        0.144771 eV
  Mean kinetic energy          =        0.833173 eV
  Heat capacity - const volume =        0.000005 eV/K
                               =        0.438874 J/(mol.K)
--------------------------------------------------------------------------------
  Phonon properties (per mole of unit cells): Temperature =     80.000 K
--------------------------------------------------------------------------------
  Zero point energy            =        1.666270 eV
  Entropy                      =        0.000002 eV/K
                               =        0.207452 J/(mol.K)
  Helmholtz free-energy        =      -57.270710 eV
                               =    -5525.747538 kJmol-1
  Free energy (equipartition)  =      -58.448105 eV
  - T*S       (equipartition)  =        0.323382 eV
  Uvib        (equipartition)  =        0.165453 eV
  Mean kinetic energy          =        0.833201 eV
  Heat capacity - const volume =        0.000007 eV/K
                               =        0.665789 J/(mol.K)
--------------------------------------------------------------------------------
  Phonon properties (per mole of unit cells): Temperature =     90.000 K
--------------------------------------------------------------------------------
  Zero point energy            =        1.666270 eV
  Entropy                      =        0.000003 eV/K
                               =        0.302453 J/(mol.K)
  Helmholtz free-energy        =      -57.270736 eV
                               =    -5525.750067 kJmol-1
  Free energy (equipartition)  =      -58.408924 eV
  - T*S       (equipartition)  =        0.341882 eV
  Uvib        (equipartition)  =        0.186134 eV
  Mean kinetic energy          =        0.833243 eV
  Heat capacity - const volume =        0.000010 eV/K
                               =        0.966802 J/(mol.K)
--------------------------------------------------------------------------------
  Phonon properties (per mole of unit cells): Temperature =    100.000 K
--------------------------------------------------------------------------------
  Zero point energy            =        1.666270 eV
  Entropy                      =        0.000004 eV/K
                               =        0.423650 J/(mol.K)
  Helmholtz free-energy        =      -57.270773 eV
                               =    -5525.753674 kJmol-1
  Free energy (equipartition)  =      -58.372046 eV
  - T*S       (equipartition)  =        0.358078 eV
  Uvib        (equipartition)  =        0.206816 eV
  Mean kinetic energy          =        0.833303 eV
  Heat capacity - const volume =        0.000014 eV/K
                               =        1.356754 J/(mol.K)
--------------------------------------------------------------------------------
  Phonon properties (per mole of unit cells): Temperature =    110.000 K
--------------------------------------------------------------------------------
  Zero point energy            =        1.666270 eV
  Entropy                      =        0.000006 eV/K
                               =        0.575254 J/(mol.K)
  Helmholtz free-energy        =      -57.270825 eV
                               =    -5525.758641 kJmol-1
  Free energy (equipartition)  =      -58.337239 eV
  - T*S       (equipartition)  =        0.372203 eV
  Uvib        (equipartition)  =        0.227498 eV
  Mean kinetic energy          =        0.833386 eV
  Heat capacity - const volume =        0.000019 eV/K
                               =        1.851014 J/(mol.K)
--------------------------------------------------------------------------------
  Phonon properties (per mole of unit cells): Temperature =    120.000 K
--------------------------------------------------------------------------------
  Zero point energy            =        1.666270 eV
  Entropy                      =        0.000008 eV/K
                               =        0.761696 J/(mol.K)
  Helmholtz free-energy        =      -57.270894 eV
                               =    -5525.765295 kJmol-1
  Free energy (equipartition)  =      -58.304315 eV
  - T*S       (equipartition)  =        0.384446 eV
  Uvib        (equipartition)  =        0.248179 eV
  Mean kinetic energy          =        0.833497 eV
  Heat capacity - const volume =        0.000026 eV/K
                               =        2.464326 J/(mol.K)
--------------------------------------------------------------------------------
  Phonon properties (per mole of unit cells): Temperature =    130.000 K
--------------------------------------------------------------------------------
  Zero point energy            =        1.666270 eV
  Entropy                      =        0.000010 eV/K
                               =        0.987462 J/(mol.K)
  Helmholtz free-energy        =      -57.270984 eV
                               =    -5525.774006 kJmol-1
  Free energy (equipartition)  =      -58.273117 eV
  - T*S       (equipartition)  =        0.394962 eV
  Uvib        (equipartition)  =        0.268861 eV
  Mean kinetic energy          =        0.833643 eV
  Heat capacity - const volume =        0.000033 eV/K
                               =        3.209748 J/(mol.K)
--------------------------------------------------------------------------------
  Phonon properties (per mole of unit cells): Temperature =    140.000 K
--------------------------------------------------------------------------------
  Zero point energy            =        1.666270 eV
  Entropy                      =        0.000013 eV/K
                               =        1.256925 J/(mol.K)
  Helmholtz free-energy        =      -57.271100 eV
                               =    -5525.785190 kJmol-1
  Free energy (equipartition)  =      -58.243511 eV
  - T*S       (equipartition)  =        0.403887 eV
  Uvib        (equipartition)  =        0.289542 eV
  Mean kinetic energy          =        0.833832 eV
  Heat capacity - const volume =        0.000042 eV/K
                               =        4.097902 J/(mol.K)
--------------------------------------------------------------------------------
  Phonon properties (per mole of unit cells): Temperature =    150.000 K
--------------------------------------------------------------------------------
  Zero point energy            =        1.666270 eV
  Entropy                      =        0.000016 eV/K
                               =        1.574187 J/(mol.K)
  Helmholtz free-energy        =      -57.271246 eV
                               =    -5525.799304 kJmol-1
  Free energy (equipartition)  =      -58.215383 eV
  - T*S       (equipartition)  =        0.411333 eV
  Uvib        (equipartition)  =        0.310224 eV
  Mean kinetic energy          =        0.834071 eV
  Heat capacity - const volume =        0.000053 eV/K
                               =        5.136594 J/(mol.K)
--------------------------------------------------------------------------------
  Phonon properties (per mole of unit cells): Temperature =    160.000 K
--------------------------------------------------------------------------------
  Zero point energy            =        1.666270 eV
  Entropy                      =        0.000020 eV/K
                               =        1.942971 J/(mol.K)
  Helmholtz free-energy        =      -57.271428 eV
                               =    -5525.816846 kJmol-1
  Free energy (equipartition)  =      -58.188636 eV
  - T*S       (equipartition)  =        0.417399 eV
  Uvib        (equipartition)  =        0.330906 eV
  Mean kinetic energy          =        0.834367 eV
  Heat capacity - const volume =        0.000066 eV/K
                               =        6.330731 J/(mol.K)
--------------------------------------------------------------------------------
  Phonon properties (per mole of unit cells): Temperature =    170.000 K
--------------------------------------------------------------------------------
  Zero point energy            =        1.666270 eV
  Entropy                      =        0.000025 eV/K
                               =        2.366531 J/(mol.K)
  Helmholtz free-energy        =      -57.271651 eV
                               =    -5525.838346 kJmol-1
  Free energy (equipartition)  =      -58.163182 eV
  - T*S       (equipartition)  =        0.422171 eV
  Uvib        (equipartition)  =        0.351587 eV
  Mean kinetic energy          =        0.834729 eV
  Heat capacity - const volume =        0.000080 eV/K
                               =        7.682447 J/(mol.K)
--------------------------------------------------------------------------------
  Phonon properties (per mole of unit cells): Temperature =    180.000 K
--------------------------------------------------------------------------------
  Zero point energy            =        1.666270 eV
  Entropy                      =        0.000030 eV/K
                               =        2.847616 J/(mol.K)
  Helmholtz free-energy        =      -57.271921 eV
                               =    -5525.864368 kJmol-1
  Free energy (equipartition)  =      -58.138945 eV
  - T*S       (equipartition)  =        0.425726 eV
  Uvib        (equipartition)  =        0.372269 eV
  Mean kinetic energy          =        0.835166 eV
  Heat capacity - const volume =        0.000095 eV/K
                               =        9.191332 J/(mol.K)
--------------------------------------------------------------------------------
  Phonon properties (per mole of unit cells): Temperature =    190.000 K
--------------------------------------------------------------------------------
  Zero point energy            =        1.666270 eV
  Entropy                      =        0.000035 eV/K
                               =        3.388440 J/(mol.K)
  Helmholtz free-energy        =      -57.272243 eV
                               =    -5525.895498 kJmol-1
  Free energy (equipartition)  =      -58.115857 eV
  - T*S       (equipartition)  =        0.428132 eV
  Uvib        (equipartition)  =        0.392951 eV
  Mean kinetic energy          =        0.835685 eV
  Heat capacity - const volume =        0.000113 eV/K
                               =       10.854714 J/(mol.K)
--------------------------------------------------------------------------------
  Phonon properties (per mole of unit cells): Temperature =    200.000 K
--------------------------------------------------------------------------------
  Zero point energy            =        1.666270 eV
  Entropy                      =        0.000041 eV/K
                               =        3.990692 J/(mol.K)
  Helmholtz free-energy        =      -57.272625 eV
                               =    -5525.932342 kJmol-1
  Free energy (equipartition)  =      -58.093859 eV
  - T*S       (equipartition)  =        0.429449 eV
  Uvib        (equipartition)  =        0.413632 eV
  Mean kinetic energy          =        0.836294 eV
  Heat capacity - const volume =        0.000131 eV/K
                               =       12.667952 J/(mol.K)
--------------------------------------------------------------------------------
  Phonon properties (per mole of unit cells): Temperature =    210.000 K
--------------------------------------------------------------------------------
  Zero point energy            =        1.666270 eV
  Entropy                      =        0.000048 eV/K
                               =        4.655542 J/(mol.K)
  Helmholtz free-energy        =      -57.273073 eV
                               =    -5525.975520 kJmol-1
  Free energy (equipartition)  =      -58.072895 eV
  - T*S       (equipartition)  =        0.429731 eV
  Uvib        (equipartition)  =        0.434314 eV
  Mean kinetic energy          =        0.837000 eV
  Heat capacity - const volume =        0.000152 eV/K
                               =       14.624717 J/(mol.K)
--------------------------------------------------------------------------------
  Phonon properties (per mole of unit cells): Temperature =    220.000 K
--------------------------------------------------------------------------------
  Zero point energy            =        1.666270 eV
  Entropy                      =        0.000056 eV/K
                               =        5.383670 J/(mol.K)
  Helmholtz free-energy        =      -57.273592 eV
                               =    -5526.025664 kJmol-1
  Free energy (equipartition)  =      -58.052917 eV
  - T*S       (equipartition)  =        0.429028 eV
  Uvib        (equipartition)  =        0.454995 eV
  Mean kinetic energy          =        0.837812 eV
  Heat capacity - const volume =        0.000173 eV/K
                               =       16.717270 J/(mol.K)
--------------------------------------------------------------------------------
  Phonon properties (per mole of unit cells): Temperature =    230.000 K
--------------------------------------------------------------------------------
  Zero point energy            =        1.666270 eV
  Entropy                      =        0.000064 eV/K
                               =        6.175293 J/(mol.K)
  Helmholtz free-energy        =      -57.274191 eV
                               =    -5526.083406 kJmol-1
  Free energy (equipartition)  =      -58.033878 eV
  - T*S       (equipartition)  =        0.427385 eV
  Uvib        (equipartition)  =        0.475677 eV
  Mean kinetic energy          =        0.838735 eV
  Heat capacity - const volume =        0.000196 eV/K
                               =       18.936725 J/(mol.K)
--------------------------------------------------------------------------------
  Phonon properties (per mole of unit cells): Temperature =    240.000 K
--------------------------------------------------------------------------------
  Zero point energy            =        1.666270 eV
  Entropy                      =        0.000073 eV/K
                               =        7.030205 J/(mol.K)
  Helmholtz free-energy        =      -57.274875 eV
                               =    -5526.149381 kJmol-1
  Free energy (equipartition)  =      -58.015740 eV
  - T*S       (equipartition)  =        0.424842 eV
  Uvib        (equipartition)  =        0.496359 eV
  Mean kinetic energy          =        0.839776 eV
  Heat capacity - const volume =        0.000220 eV/K
                               =       21.273294 J/(mol.K)
--------------------------------------------------------------------------------
  Phonon properties (per mole of unit cells): Temperature =    250.000 K
--------------------------------------------------------------------------------
  Zero point energy            =        1.666270 eV
  Entropy                      =        0.000082 eV/K
                               =        7.947808 J/(mol.K)
  Helmholtz free-energy        =      -57.275650 eV
                               =    -5526.224219 kJmol-1
  Free energy (equipartition)  =      -57.998463 eV
  - T*S       (equipartition)  =        0.421437 eV
  Uvib        (equipartition)  =        0.517040 eV
  Mean kinetic energy          =        0.840942 eV
  Heat capacity - const volume =        0.000246 eV/K
                               =       23.716529 J/(mol.K)
--------------------------------------------------------------------------------
  Phonon properties (per mole of unit cells): Temperature =    260.000 K
--------------------------------------------------------------------------------
  Zero point energy            =        1.666270 eV
  Entropy                      =        0.000093 eV/K
                               =        8.927158 J/(mol.K)
  Helmholtz free-energy        =      -57.276524 eV
                               =    -5526.308543 kJmol-1
  Free energy (equipartition)  =      -57.982014 eV
  - T*S       (equipartition)  =        0.417205 eV
  Uvib        (equipartition)  =        0.537722 eV
  Mean kinetic energy          =        0.842236 eV
  Heat capacity - const volume =        0.000272 eV/K
                               =       26.255541 J/(mol.K)
--------------------------------------------------------------------------------
  Phonon properties (per mole of unit cells): Temperature =    270.000 K
--------------------------------------------------------------------------------
  Zero point energy            =        1.666270 eV
  Entropy                      =        0.000103 eV/K
                               =        9.967000 J/(mol.K)
  Helmholtz free-energy        =      -57.277503 eV
                               =    -5526.402964 kJmol-1
  Free energy (equipartition)  =      -57.966360 eV
  - T*S       (equipartition)  =        0.412177 eV
  Uvib        (equipartition)  =        0.558403 eV
  Mean kinetic energy          =        0.843664 eV
  Heat capacity - const volume =        0.000299 eV/K
                               =       28.879205 J/(mol.K)
--------------------------------------------------------------------------------
  Phonon properties (per mole of unit cells): Temperature =    280.000 K
--------------------------------------------------------------------------------
  Zero point energy            =        1.666270 eV
  Entropy                      =        0.000115 eV/K
                               =       11.065809 J/(mol.K)
  Helmholtz free-energy        =      -57.278592 eV
                               =    -5526.508079 kJmol-1
  Free energy (equipartition)  =      -57.951473 eV
  - T*S       (equipartition)  =        0.406382 eV
  Uvib        (equipartition)  =        0.579085 eV
  Mean kinetic energy          =        0.845230 eV
  Heat capacity - const volume =        0.000327 eV/K
                               =       31.576344 J/(mol.K)
--------------------------------------------------------------------------------
  Phonon properties (per mole of unit cells): Temperature =    290.000 K
--------------------------------------------------------------------------------
  Zero point energy            =        1.666270 eV
  Entropy                      =        0.000127 eV/K
                               =       12.221833 J/(mol.K)
  Helmholtz free-energy        =      -57.279799 eV
                               =    -5526.624470 kJmol-1
  Free energy (equipartition)  =      -57.937324 eV
  - T*S       (equipartition)  =        0.399850 eV
  Uvib        (equipartition)  =        0.599767 eV
  Mean kinetic energy          =        0.846938 eV
  Heat capacity - const volume =        0.000356 eV/K
                               =       34.335891 J/(mol.K)
--------------------------------------------------------------------------------

  Time to end of properties =       1.3192 seconds


  Peak dynamic memory used =       0.67 MB 


  Timing analysis for GULP :

--------------------------------------------------------------------------------
  Task / Subroutine                                          Time (Seconds)
--------------------------------------------------------------------------------
  Calculation of real space energy and derivatives                0.0006
  Calculation of Brenner energy and derivatives                   1.2787
  Calculation of phonons                                          1.3090
  Disk read/write operations to scratch files                     0.0055
--------------------------------------------------------------------------------
  Total CPU time                                                  1.3192
--------------------------------------------------------------------------------


  Job Finished at 18:11.01 14th August     2020                               

