********************************************************************************
*                       GENERAL UTILITY LATTICE PROGRAM                        *
*                                 Julian Gale                                  *
*                       Curtin Institute for Computation                       *
*                    School of Molecular and Life Sciences                     *
*                    Curtin University, Western Australia                      *
********************************************************************************
* Version = 5.2.0 * Last modified =  17th December 2019                        *
********************************************************************************
*  optimise     - perform optimisation run                                     *
*  conv         - constant volume calculation                                  *
*  isotropic    - only isotropic cell expansion to be allowed                  *
*  lbfgs        - use limited memory BFGS update                               *
********************************************************************************
* ASE calculation                                                              *
********************************************************************************


  Job Started  at 13:09.01 31st July       2020                               

  Number of CPUs =     1


  Total number of configurations input =      1

********************************************************************************
*  Input for Configuration =   1                                               *
********************************************************************************

  Formula = C64                                                         

  Number of irreducible atoms/shells =      64


  Total number atoms/shells =      64

  Dimensionality = 3               :  Bulk   



  Cartesian lattice vectors (Angstroms) :

        7.688942    0.000000    0.000000
        0.000000    7.688942    0.000000
        0.000000    0.000000    7.688942

  Cell parameters (Angstroms/Degrees):

  a =       7.6889    alpha =  90.0000
  b =       7.6889    beta  =  90.0000
  c =       7.6889    gamma =  90.0000

  Initial cell volume =         454.568937 Angs**3

  Temperature of configuration =   0.00     K 

  Pressure of configuration =         0.000 GPa 

  Fractional coordinates of asymmetric unit :

--------------------------------------------------------------------------------
   No.  Atomic       x           y          z         Charge      Occupancy
        Label      (Frac)      (Frac)     (Frac)        (e)         (Frac)  
--------------------------------------------------------------------------------
      1 C     c    0.476040    0.519880    0.065020     0.00000    1.000000    
      2 C     c    0.408230 *  0.739570 *  0.304320 *   0.00000    1.000000    
      3 C     c    0.283500 *  0.257800 *  0.903540 *   0.00000    1.000000    
      4 C     c    0.121740 *  0.015000 *  0.619820 *   0.00000    1.000000    
      5 C     c    0.961630 *  0.858120 *  0.881770 *   0.00000    1.000000    
      6 C     c    0.791230 *  0.484810 *  0.577650 *   0.00000    1.000000    
      7 C     c    0.611650 *  0.418220 *  0.674250 *   0.00000    1.000000    
      8 C     c    0.791740 *  0.717880 *  0.328190 *   0.00000    1.000000    
      9 C     c    0.885060 *  0.252990 *  0.323860 *   0.00000    1.000000    
     10 C     c    0.677960 *  0.164610 *  0.130500 *   0.00000    1.000000    
     11 C     c    0.876740 *  0.039070 *  0.362680 *   0.00000    1.000000    
     12 C     c    0.961970 *  0.955970 *  0.523330 *   0.00000    1.000000    
     13 C     c    0.510700 *  0.062220 *  0.141510 *   0.00000    1.000000    
     14 C     c    0.554090 *  0.985780 *  0.487090 *   0.00000    1.000000    
     15 C     c    0.461770 *  0.326030 *  0.993000 *   0.00000    1.000000    
     16 C     c    0.946890 *  0.357160 *  0.482980 *   0.00000    1.000000    
     17 C     c    0.154070 *  0.421170 *  0.828520 *   0.00000    1.000000    
     18 C     c    0.831770 *  0.738730 *  0.814560 *   0.00000    1.000000    
     19 C     c    0.920120 *  0.954310 *  0.037080 *   0.00000    1.000000    
     20 C     c    0.147610 *  0.916410 *  0.794660 *   0.00000    1.000000    
     21 C     c    0.868360 *  0.656000 *  0.654380 *   0.00000    1.000000    
     22 C     c    0.879940 *  0.132590 *  0.720880 *   0.00000    1.000000    
     23 C     c    0.499460 *  0.600100 *  0.409770 *   0.00000    1.000000    
     24 C     c    0.653150 *  0.710260 *  0.882190 *   0.00000    1.000000    
     25 C     c    0.638740 *  0.591320 *  0.028020 *   0.00000    1.000000    
     26 C     c    0.781760 *  0.980410 *  0.706670 *   0.00000    1.000000    
     27 C     c    0.472510 *  0.453970 *  0.572730 *   0.00000    1.000000    
     28 C     c    0.358710 *  0.639340 *  0.140240 *   0.00000    1.000000    
     29 C     c    0.589570 *  0.956860 *  0.680290 *   0.00000    1.000000    
     30 C     c    0.718040 *  0.337390 *  0.232610 *   0.00000    1.000000    
     31 C     c    0.001140 *  0.187050 *  0.148080 *   0.00000    1.000000    
     32 C     c    0.965430 *  0.404090 *  0.890210 *   0.00000    1.000000    
     33 C     c    0.506120 *  0.789580 *  0.785060 *   0.00000    1.000000    
     34 C     c    0.837780 *  0.141480 *  0.024540 *   0.00000    1.000000    
     35 C     c    0.349610 *  0.176980 *  0.704320 *   0.00000    1.000000    
     36 C     c    0.114160 *  0.481020 *  0.449370 *   0.00000    1.000000    
     37 C     c    0.177470 *  0.156740 *  0.076340 *   0.00000    1.000000    
     38 C     c    0.281670 *  0.397800 *  0.512320 *   0.00000    1.000000    
     39 C     c    0.098910 *  0.680840 *  0.419430 *   0.00000    1.000000    
     40 C     c    0.930150 *  0.506570 *  0.035090 *   0.00000    1.000000    
     41 C     c    0.825710 *  0.254140 *  0.863560 *   0.00000    1.000000    
     42 C     c    0.362940 *  0.214000 *  0.165770 *   0.00000    1.000000    
     43 C     c    0.399470 *  0.120970 *  0.502590 *   0.00000    1.000000    
     44 C     c    0.983380 *  0.715560 *  0.265900 *   0.00000    1.000000    
     45 C     c    0.394910 *  0.281560 *  0.358750 *   0.00000    1.000000    
     46 C     c    0.560620 *  0.397310 *  0.336180 *   0.00000    1.000000    
     47 C     c    0.315270 *  0.767480 *  0.789300 *   0.00000    1.000000    
     48 C     c    0.937820 *  0.909940 *  0.211780 *   0.00000    1.000000    
     49 C     c    0.766280 *  0.492620 *  0.107940 *   0.00000    1.000000    
     50 C     c    0.254780 *  0.806800 *  0.411390 *   0.00000    1.000000    
     51 C     c    0.703920 *  0.556230 *  0.406270 *   0.00000    1.000000    
     52 C     c    0.957750 *  0.762410 *  0.534000 *   0.00000    1.000000    
     53 C     c    0.232480 *  0.605790 *  0.869400 *   0.00000    1.000000    
     54 C     c    0.043270 *  0.616500 *  0.115680 *   0.00000    1.000000    
     55 C     c    0.619960 *  0.289910 *  0.840110 *   0.00000    1.000000    
     56 C     c    0.437720 *  0.008810 *  0.964830 *   0.00000    1.000000    
     57 C     c    0.520090 *  0.915040 *  0.281560 *   0.00000    1.000000    
     58 C     c    0.206950 *  0.638760 *  0.050740 *   0.00000    1.000000    
     59 C     c    0.024090 *  0.212260 *  0.608440 *   0.00000    1.000000    
     60 C     c    0.263200 *  0.965980 *  0.492200 *   0.00000    1.000000    
     61 C     c    0.714850 *  0.905160 *  0.357290 *   0.00000    1.000000    
     62 C     c    0.247900 *  0.994030 *  0.956370 *   0.00000    1.000000    
     63 C     c    0.509550 *  0.102510 *  0.802490 *   0.00000    1.000000    
     64 C     c    0.189960 *  0.302950 *  0.668360 *   0.00000    1.000000    
--------------------------------------------------------------------------------


  Constraints : 

--------------------------------------------------------------------------------
  Constraint no.      Unconstrained     Constrained    Coefficient    Offset
                         Variable         Variable
--------------------------------------------------------------------------------
           1              Strain 1        Strain 2       1.00000      0.0000
           2              Strain 1        Strain 3       1.00000      0.0000
--------------------------------------------------------------------------------


********************************************************************************
*  General input information                                                   *
********************************************************************************

  Species output for all configurations : 

--------------------------------------------------------------------------------
  Species    Type    Atomic    Atomic    Charge       Radii (Angs)     Library
                     Number     Mass       (e)     Cova   Ionic  VDW   Symbol
--------------------------------------------------------------------------------
    C        Core        6      12.01   0.000000   0.770  0.000  1.530          
--------------------------------------------------------------------------------


  Lattice summation method               =    Ewald          (3-D)
                                         =    Parry          (2-D)
                                         =    Saunders et al (1-D)
  Accuracy factor for lattice sums       =   12.000


  Analytic derivatives to be used

  Time limit = Infinity

  Maximum range for interatomic potentials =    100000.000000 Angstroms

  Brenner et al 2002 potential to be used with explicit splines for P


********************************************************************************
*  Output for configuration   1                                                *
********************************************************************************


  Components of energy : 

--------------------------------------------------------------------------------
  Interatomic potentials     =           0.00000000 eV    
  Brenner potentials         =        -420.65037709 eV    
  Monopole - monopole (real) =           0.00000000 eV    
  Monopole - monopole (recip)=           0.00000000 eV    
  Monopole - monopole (total)=           0.00000000 eV    
--------------------------------------------------------------------------------
  Total lattice energy       =        -420.65037709 eV    
--------------------------------------------------------------------------------
  Total lattice energy       =          -40586.3312 kJ/(mole unit cells)
--------------------------------------------------------------------------------


  Number of variables =      189

  Maximum number of calculations  =          2000
  Maximum Hessian update interval =            10
  Maximum step size               =   1.000000000
  Maximum parameter tolerance     =   0.000010000
  Maximum function  tolerance     =   0.000010000
  Maximum gradient  tolerance     =   0.001000000
  Maximum gradient  component     =   0.010000000

  Maximum LM gradient tolerance   =   0.900000000
  Symmetry not applied to optimisation

  Limited Memory BFGS to be used of order   10

  BFGS hessian update to be used

  Lower half triangular hessian to be used

  Start of bulk optimisation :

  Cycle:      0 Energy:      -420.650377  Gnorm:      0.463331  CPU:    0.034
  Cycle:      1 Energy:      -420.812050  Gnorm:      0.379010  CPU:    0.079
  Cycle:      2 Energy:      -421.305534  Gnorm:      0.183257  CPU:    0.086
  Cycle:      3 Energy:      -421.417080  Gnorm:      0.160223  CPU:    0.110
  Cycle:      4 Energy:      -421.491587  Gnorm:      0.122288  CPU:    0.120
  Cycle:      5 Energy:      -421.537697  Gnorm:      0.092335  CPU:    0.139
  Cycle:      6 Energy:      -421.589284  Gnorm:      0.103688  CPU:    0.153
  Cycle:      7 Energy:      -421.615561  Gnorm:      0.128684  CPU:    0.160
  Cycle:      8 Energy:      -421.639727  Gnorm:      0.074581  CPU:    0.182
  Cycle:      9 Energy:      -421.667425  Gnorm:      0.062156  CPU:    0.193
  Cycle:     10 Energy:      -421.682907  Gnorm:      0.055005  CPU:    0.200
  Cycle:     11 Energy:      -421.699593  Gnorm:      0.115445  CPU:    0.223
  Cycle:     12 Energy:      -421.710827  Gnorm:      0.067066  CPU:    0.234
  Cycle:     13 Energy:      -421.722295  Gnorm:      0.042460  CPU:    0.240
  Cycle:     14 Energy:      -421.725732  Gnorm:      0.080750  CPU:    0.265
  Cycle:     15 Energy:      -421.734867  Gnorm:      0.031068  CPU:    0.275
  Cycle:     16 Energy:      -421.739511  Gnorm:      0.028551  CPU:    0.281
  Cycle:     17 Energy:      -421.745948  Gnorm:      0.033816  CPU:    0.307
  Cycle:     18 Energy:      -421.751463  Gnorm:      0.072275  CPU:    0.316
  Cycle:     19 Energy:      -421.758544  Gnorm:      0.037510  CPU:    0.341
  Cycle:     20 Energy:      -421.761827  Gnorm:      0.026667  CPU:    0.362
  Cycle:     21 Energy:      -421.765198  Gnorm:      0.031961  CPU:    0.377
  Cycle:     22 Energy:      -421.767935  Gnorm:      0.031338  CPU:    0.384
  Cycle:     23 Energy:      -421.772127  Gnorm:      0.027014  CPU:    0.407
  Cycle:     24 Energy:      -421.775604  Gnorm:      0.043727  CPU:    0.418
  Cycle:     25 Energy:      -421.779272  Gnorm:      0.024211  CPU:    0.431
  Cycle:     26 Energy:      -421.781849  Gnorm:      0.023081  CPU:    0.452
  Cycle:     27 Energy:      -421.784791  Gnorm:      0.024657  CPU:    0.459
  Cycle:     28 Energy:      -421.786729  Gnorm:      0.044077  CPU:    0.477
  Cycle:     29 Energy:      -421.789330  Gnorm:      0.018284  CPU:    0.492
  Cycle:     30 Energy:      -421.790945  Gnorm:      0.018131  CPU:    0.499
  Cycle:     31 Energy:      -421.792326  Gnorm:      0.022693  CPU:    0.519
  Cycle:     32 Energy:      -421.793884  Gnorm:      0.020851  CPU:    0.533
  Cycle:     33 Energy:      -421.795539  Gnorm:      0.017060  CPU:    0.540
  Cycle:     34 Energy:      -421.796825  Gnorm:      0.015097  CPU:    0.563
  Cycle:     35 Energy:      -421.797718  Gnorm:      0.028925  CPU:    0.574
  Cycle:     36 Energy:      -421.798608  Gnorm:      0.012807  CPU:    0.581
  Cycle:     37 Energy:      -421.799150  Gnorm:      0.010303  CPU:    0.607
  Cycle:     38 Energy:      -421.799730  Gnorm:      0.012825  CPU:    0.616
  Cycle:     39 Energy:      -421.800480  Gnorm:      0.015298  CPU:    0.622
  Cycle:     40 Energy:      -421.800896  Gnorm:      0.012371  CPU:    0.653
  Cycle:     41 Energy:      -421.801289  Gnorm:      0.009285  CPU:    0.660
  Cycle:     42 Energy:      -421.801629  Gnorm:      0.010585  CPU:    0.683
  Cycle:     43 Energy:      -421.801876  Gnorm:      0.006766  CPU:    0.694
  Cycle:     44 Energy:      -421.802191  Gnorm:      0.006854  CPU:    0.701
  Cycle:     45 Energy:      -421.802356  Gnorm:      0.008285  CPU:    0.726
  Cycle:     46 Energy:      -421.802576  Gnorm:      0.006738  CPU:    0.736
  Cycle:     47 Energy:      -421.802857  Gnorm:      0.006125  CPU:    0.762
  Cycle:     48 Energy:      -421.803130  Gnorm:      0.009051  CPU:    0.771
  Cycle:     49 Energy:      -421.803395  Gnorm:      0.008534  CPU:    0.798
  Cycle:     50 Energy:      -421.803626  Gnorm:      0.006827  CPU:    0.806
  Cycle:     51 Energy:      -421.803870  Gnorm:      0.006184  CPU:    0.815
  Cycle:     52 Energy:      -421.804131  Gnorm:      0.006348  CPU:    0.840
  Cycle:     53 Energy:      -421.804389  Gnorm:      0.006979  CPU:    0.848
  Cycle:     54 Energy:      -421.804545  Gnorm:      0.013175  CPU:    0.862
  Cycle:     55 Energy:      -421.804756  Gnorm:      0.006007  CPU:    0.881
  Cycle:     56 Energy:      -421.804919  Gnorm:      0.005039  CPU:    0.888
  Cycle:     57 Energy:      -421.805093  Gnorm:      0.006206  CPU:    0.908
  Cycle:     58 Energy:      -421.805392  Gnorm:      0.007528  CPU:    0.922
  Cycle:     59 Energy:      -421.805582  Gnorm:      0.010337  CPU:    0.937
  Cycle:     60 Energy:      -421.805847  Gnorm:      0.005674  CPU:    0.960
  Cycle:     61 Energy:      -421.806054  Gnorm:      0.005659  CPU:    0.968
  Cycle:     62 Energy:      -421.806269  Gnorm:      0.008667  CPU:    0.982
  Cycle:     63 Energy:      -421.806513  Gnorm:      0.007622  CPU:    1.001
  Cycle:     64 Energy:      -421.806760  Gnorm:      0.006640  CPU:    1.009
  Cycle:     65 Energy:      -421.807018  Gnorm:      0.011260  CPU:    1.028
  Cycle:     66 Energy:      -421.807234  Gnorm:      0.008156  CPU:    1.042
  Cycle:     67 Energy:      -421.807418  Gnorm:      0.007263  CPU:    1.049
  Cycle:     68 Energy:      -421.807755  Gnorm:      0.007247  CPU:    1.072
  Cycle:     69 Energy:      -421.807879  Gnorm:      0.009392  CPU:    1.087
  Cycle:     70 Energy:      -421.808047  Gnorm:      0.006820  CPU:    1.099
  Cycle:     71 Energy:      -421.808277  Gnorm:      0.004821  CPU:    1.120
  Cycle:     72 Energy:      -421.808426  Gnorm:      0.006949  CPU:    1.128
  Cycle:     73 Energy:      -421.808560  Gnorm:      0.005601  CPU:    1.144
  Cycle:     74 Energy:      -421.808656  Gnorm:      0.003986  CPU:    1.162
  Cycle:     75 Energy:      -421.808758  Gnorm:      0.005319  CPU:    1.169
  Cycle:     76 Energy:      -421.808823  Gnorm:      0.004912  CPU:    1.190
  Cycle:     77 Energy:      -421.808865  Gnorm:      0.003402  CPU:    1.203
  Cycle:     78 Energy:      -421.808926  Gnorm:      0.002543  CPU:    1.210
  Cycle:     79 Energy:      -421.808956  Gnorm:      0.005379  CPU:    1.233
  Cycle:     80 Energy:      -421.808991  Gnorm:      0.003363  CPU:    1.244
  Cycle:     81 Energy:      -421.809030  Gnorm:      0.002316  CPU:    1.251
  Cycle:     82 Energy:      -421.809053  Gnorm:      0.002326  CPU:    1.276
  Cycle:     83 Energy:      -421.809097  Gnorm:      0.002860  CPU:    1.285
  Cycle:     84 Energy:      -421.809106  Gnorm:      0.004113  CPU:    1.292
  Cycle:     85 Energy:      -421.809129  Gnorm:      0.001490  CPU:    1.317
  Cycle:     86 Energy:      -421.809139  Gnorm:      0.001360  CPU:    1.342
  Cycle:     87 Energy:      -421.809158  Gnorm:      0.001972  CPU:    1.361
  Cycle:     88 Energy:      -421.809180  Gnorm:      0.003296  CPU:    1.381
  Cycle:     89 Energy:      -421.809203  Gnorm:      0.002161  CPU:    1.408
  Cycle:     90 Energy:      -421.809217  Gnorm:      0.001299  CPU:    1.417
  Cycle:     91 Energy:      -421.809229  Gnorm:      0.001557  CPU:    1.426
  Cycle:     92 Energy:      -421.809235  Gnorm:      0.002364  CPU:    1.450
  Cycle:     93 Energy:      -421.809242  Gnorm:      0.001357  CPU:    1.457
  Cycle:     94 Energy:      -421.809250  Gnorm:      0.000941  CPU:    1.472
  Cycle:     95 Energy:      -421.809253  Gnorm:      0.001021  CPU:    1.491
  Cycle:     96 Energy:      -421.809258  Gnorm:      0.002262  CPU:    1.498
  Cycle:     97 Energy:      -421.809264  Gnorm:      0.000748  CPU:    1.518
  Cycle:     98 Energy:      -421.809266  Gnorm:      0.000684  CPU:    1.532
  Cycle:     99 Energy:      -421.809269  Gnorm:      0.000677  CPU:    1.539
  Cycle:    100 Energy:      -421.809273  Gnorm:      0.001432  CPU:    1.562
  Cycle:    101 Energy:      -421.809276  Gnorm:      0.000736  CPU:    1.574
  Cycle:    102 Energy:      -421.809278  Gnorm:      0.000558  CPU:    1.580
  Cycle:    103 Energy:      -421.809280  Gnorm:      0.000717  CPU:    1.605
  Cycle:    104 Energy:      -421.809283  Gnorm:      0.001034  CPU:    1.615
  Cycle:    105 Energy:      -421.809286  Gnorm:      0.000878  CPU:    1.621
  Cycle:    106 Energy:      -421.809289  Gnorm:      0.000692  CPU:    1.647
  Cycle:    107 Energy:      -421.809293  Gnorm:      0.000971  CPU:    1.656
  Cycle:    108 Energy:      -421.809297  Gnorm:      0.001151  CPU:    1.663
  Cycle:    109 Energy:      -421.809301  Gnorm:      0.000861  CPU:    1.689
  Cycle:    110 Energy:      -421.809306  Gnorm:      0.000841  CPU:    1.697
  Cycle:    111 Energy:      -421.809311  Gnorm:      0.001379  CPU:    1.708
  Cycle:    112 Energy:      -421.809316  Gnorm:      0.001008  CPU:    1.730
  Cycle:    113 Energy:      -421.809320  Gnorm:      0.000834  CPU:    1.738
  Cycle:    114 Energy:      -421.809323  Gnorm:      0.000893  CPU:    1.752
  Cycle:    115 Energy:      -421.809325  Gnorm:      0.000615  CPU:    1.771
  Cycle:    116 Energy:      -421.809328  Gnorm:      0.000538  CPU:    1.778
  Cycle:    117 Energy:      -421.809329  Gnorm:      0.000732  CPU:    1.798
  Cycle:    118 Energy:      -421.809331  Gnorm:      0.000475  CPU:    1.812
  Cycle:    119 Energy:      -421.809332  Gnorm:      0.000533  CPU:    1.822
  Cycle:    120 Energy:      -421.809333  Gnorm:      0.000619  CPU:    1.845
  Cycle:    121 Energy:      -421.809333  Gnorm:      0.000403  CPU:    1.854
  Cycle:    122 Energy:      -421.809334  Gnorm:      0.000330  CPU:    1.879
  Cycle:    123 Energy:      -421.809335  Gnorm:      0.000368  CPU:    1.887
  Cycle:    124 Energy:      -421.809335  Gnorm:      0.000585  CPU:    1.901
  Cycle:    125 Energy:      -421.809336  Gnorm:      0.000271  CPU:    1.921
  Cycle:    126 Energy:      -421.809336  Gnorm:      0.000211  CPU:    1.946
  Cycle:    127 Energy:      -421.809337  Gnorm:      0.000186  CPU:    1.956
  Cycle:    128 Energy:      -421.809337  Gnorm:      0.000259  CPU:    1.984
  Cycle:    129 Energy:      -421.809337  Gnorm:      0.000165  CPU:    2.002


  **** Optimisation achieved ****


  Final energy =    -421.80933693 eV
  Final Gnorm  =       0.00012443

  Components of energy : 

--------------------------------------------------------------------------------
  Interatomic potentials     =           0.00000000 eV    
  Brenner potentials         =        -421.80933693 eV    
  Monopole - monopole (real) =           0.00000000 eV    
  Monopole - monopole (recip)=           0.00000000 eV    
  Monopole - monopole (total)=           0.00000000 eV    
--------------------------------------------------------------------------------
  Total lattice energy       =        -421.80933693 eV    
--------------------------------------------------------------------------------
  Total lattice energy       =          -40698.1531 kJ/(mole unit cells)
--------------------------------------------------------------------------------

  Final fractional coordinates of atoms :

--------------------------------------------------------------------------------
   No.  Atomic        x           y          z          Radius
        Label       (Frac)      (Frac)     (Frac)       (Angs) 
--------------------------------------------------------------------------------
     1  C     c     0.476040    0.519880    0.065020    0.000000
     2  C     c     0.408717    0.736973    0.309203    0.000000
     3  C     c     0.290617    0.262371    0.910429    0.000000
     4  C     c     0.103908    0.008113    0.617725    0.000000
     5  C     c     0.956531    0.855395    0.883529    0.000000
     6  C     c     0.795759    0.476401    0.583737    0.000000
     7  C     c     0.616448    0.412326    0.680128    0.000000
     8  C     c     0.787500    0.713178    0.340003    0.000000
     9  C     c     0.884976    0.242999    0.328062    0.000000
    10  C     c     0.688839    0.158456    0.143773    0.000000
    11  C     c     0.869562    0.035024    0.363253    0.000000
    12  C     c     0.950303    0.931504    0.523271    0.000000
    13  C     c     0.517195    0.057898    0.152456    0.000000
    14  C     c     0.549984    0.978248    0.498477    0.000000
    15  C     c     0.468998    0.329451    0.001295    0.000000
    16  C     c     0.950387    0.349150    0.489865    0.000000
    17  C     c     0.159411    0.419287    0.832514    0.000000
    18  C     c     0.829804    0.735204    0.815212    0.000000
    19  C     c     0.910884    0.946433    0.039149    0.000000
    20  C     c     0.143573    0.915969    0.798792    0.000000
    21  C     c     0.869785    0.648275    0.657777    0.000000
    22  C     c     0.890394    0.123461    0.729709    0.000000
    23  C     c     0.497209    0.596278    0.414043    0.000000
    24  C     c     0.651119    0.704775    0.884665    0.000000
    25  C     c     0.640628    0.586156    0.027451    0.000000
    26  C     c     0.789238    0.975679    0.719472    0.000000
    27  C     c     0.474608    0.454542    0.577418    0.000000
    28  C     c     0.359523    0.637949    0.141480    0.000000
    29  C     c     0.590235    0.953578    0.693706    0.000000
    30  C     c     0.716182    0.338667    0.234295    0.000000
    31  C     c     0.010643    0.198749    0.156395    0.000000
    32  C     c     0.971109    0.393944    0.897487    0.000000
    33  C     c     0.503190    0.788669    0.788896    0.000000
    34  C     c     0.851281    0.134851    0.037371    0.000000
    35  C     c     0.354150    0.176696    0.713283    0.000000
    36  C     c     0.114333    0.477476    0.450248    0.000000
    37  C     c     0.185687    0.168823    0.082253    0.000000
    38  C     c     0.281762    0.397456    0.518239    0.000000
    39  C     c     0.100644    0.672426    0.422465    0.000000
    40  C     c     0.932899    0.497512    0.039610    0.000000
    41  C     c     0.835285    0.243258    0.874364    0.000000
    42  C     c     0.377113    0.215119    0.169271    0.000000
    43  C     c     0.393384    0.114626    0.510496    0.000000
    44  C     c     0.977857    0.710075    0.269034    0.000000
    45  C     c     0.396434    0.276940    0.371162    0.000000
    46  C     c     0.559797    0.397998    0.340143    0.000000
    47  C     c     0.306247    0.764679    0.789763    0.000000
    48  C     c     0.923008    0.896033    0.214156    0.000000
    49  C     c     0.766697    0.483978    0.107739    0.000000
    50  C     c     0.253137    0.803218    0.416431    0.000000
    51  C     c     0.703961    0.552370    0.413008    0.000000
    52  C     c     0.955264    0.748390    0.535231    0.000000
    53  C     c     0.229427    0.605435    0.867376    0.000000
    54  C     c     0.040314    0.615764    0.116175    0.000000
    55  C     c     0.625649    0.285283    0.848942    0.000000
    56  C     c     0.437677    0.015236    0.971348    0.000000
    57  C     c     0.519458    0.911361    0.289541    0.000000
    58  C     c     0.204421    0.640819    0.050148    0.000000
    59  C     c     0.036287    0.208877    0.616267    0.000000
    60  C     c     0.255936    0.960332    0.495246    0.000000
    61  C     c     0.712746    0.893818    0.373771    0.000000
    62  C     c     0.241780    0.011109    0.955587    0.000000
    63  C     c     0.515755    0.101208    0.810987    0.000000
    64  C     c     0.199258    0.303589    0.671914    0.000000
--------------------------------------------------------------------------------

  Final internal derivatives :

--------------------------------------------------------------------------------
   No.  Atomic          a             b             c           Radius
        Label          (eV)          (eV)          (eV)        (eV/Angs)
--------------------------------------------------------------------------------
      1 C     c       0.000000      0.000000      0.000000      0.000000
      2 C     c      -0.000424      0.001277     -0.001883      0.000000
      3 C     c       0.001087      0.001365      0.000428      0.000000
      4 C     c       0.000861     -0.000001      0.000559      0.000000
      5 C     c      -0.000759     -0.003294      0.000871      0.000000
      6 C     c       0.002387     -0.004521     -0.002713      0.000000
      7 C     c      -0.000949     -0.000852      0.000654      0.000000
      8 C     c      -0.002214      0.002694     -0.004081      0.000000
      9 C     c       0.002273      0.001397     -0.002166      0.000000
     10 C     c      -0.001253     -0.000989     -0.003674      0.000000
     11 C     c       0.001928     -0.001411      0.000719      0.000000
     12 C     c       0.002035      0.001393     -0.002151      0.000000
     13 C     c       0.000937      0.000481      0.000382      0.000000
     14 C     c      -0.000651      0.000431      0.001697      0.000000
     15 C     c       0.003453      0.000822     -0.005822      0.000000
     16 C     c       0.000105      0.000469     -0.001595      0.000000
     17 C     c       0.000608     -0.003122      0.000892      0.000000
     18 C     c      -0.001369     -0.001387     -0.000387      0.000000
     19 C     c       0.000601     -0.000106     -0.000294      0.000000
     20 C     c       0.000816      0.000157      0.000565      0.000000
     21 C     c      -0.001367     -0.001178     -0.000867      0.000000
     22 C     c       0.000777      0.002050     -0.003136      0.000000
     23 C     c       0.002026      0.000055     -0.003742      0.000000
     24 C     c       0.001479     -0.002713     -0.001650      0.000000
     25 C     c       0.001603     -0.002165     -0.000533      0.000000
     26 C     c       0.002934     -0.000119     -0.000477      0.000000
     27 C     c       0.002253     -0.001349     -0.004251      0.000000
     28 C     c      -0.000961     -0.000812     -0.001512      0.000000
     29 C     c      -0.002243      0.001389     -0.000287      0.000000
     30 C     c       0.001940      0.000866     -0.001920      0.000000
     31 C     c       0.000462      0.000158      0.000227      0.000000
     32 C     c      -0.001007      0.000678     -0.001286      0.000000
     33 C     c       0.000138     -0.000531     -0.001267      0.000000
     34 C     c      -0.001622     -0.001896      0.000241      0.000000
     35 C     c      -0.000057     -0.001590      0.000283      0.000000
     36 C     c       0.000105      0.000573      0.000939      0.000000
     37 C     c      -0.002881      0.000718     -0.001466      0.000000
     38 C     c       0.003034      0.001617      0.000895      0.000000
     39 C     c       0.003758     -0.000838     -0.001191      0.000000
     40 C     c       0.000946     -0.000339     -0.000342      0.000000
     41 C     c       0.003760     -0.004735      0.000279      0.000000
     42 C     c       0.000640     -0.000899      0.000685      0.000000
     43 C     c       0.000134     -0.000953     -0.001434      0.000000
     44 C     c      -0.000259     -0.001396      0.001784      0.000000
     45 C     c      -0.000869     -0.001553     -0.000240      0.000000
     46 C     c      -0.000209      0.001598      0.003985      0.000000
     47 C     c      -0.000138      0.000157     -0.003682      0.000000
     48 C     c       0.000425     -0.001476      0.001107      0.000000
     49 C     c       0.001706     -0.001937     -0.001108      0.000000
     50 C     c      -0.000394     -0.001058      0.001175      0.000000
     51 C     c       0.001140      0.000569     -0.002042      0.000000
     52 C     c       0.001420      0.000333     -0.000194      0.000000
     53 C     c      -0.000054      0.000342     -0.000767      0.000000
     54 C     c       0.000681     -0.001181      0.000812      0.000000
     55 C     c      -0.002632      0.001685      0.003271      0.000000
     56 C     c      -0.000260     -0.002802      0.000539      0.000000
     57 C     c       0.004341      0.001369     -0.000848      0.000000
     58 C     c      -0.000605      0.001699     -0.001593      0.000000
     59 C     c      -0.000959      0.001387     -0.000534      0.000000
     60 C     c      -0.001487      0.000166     -0.000495      0.000000
     61 C     c      -0.000183      0.000222     -0.001603      0.000000
     62 C     c       0.001639     -0.002579     -0.000219      0.000000
     63 C     c       0.001417     -0.000008      0.000526      0.000000
     64 C     c      -0.000531     -0.001074     -0.001202      0.000000
--------------------------------------------------------------------------------
  Maximum abs         0.004341      0.004735      0.005822      0.000000
--------------------------------------------------------------------------------


  Time to end of optimisation =       2.0100 seconds


  Peak dynamic memory used =       2.01 MB 


  Timing analysis for GULP :

--------------------------------------------------------------------------------
  Task / Subroutine                                          Time (Seconds)
--------------------------------------------------------------------------------
  Calculation of Brenner energy and derivatives                   1.9659
--------------------------------------------------------------------------------
  Total CPU time                                                  2.0100
--------------------------------------------------------------------------------


  CIF file written as opti_1.0150.cif


  Job Finished at 13:09.03 31st July       2020                               

