********************************************************************************
*                       GENERAL UTILITY LATTICE PROGRAM                        *
*                                 Julian Gale                                  *
*                       Curtin Institute for Computation                       *
*                    School of Molecular and Life Sciences                     *
*                    Curtin University, Western Australia                      *
********************************************************************************
* Version = 5.2.0 * Last modified =  17th December 2019                        *
********************************************************************************
*  single       - perform a single point run                                   *
*  property     - calculate properties for final geometry                      *
*  phonon       - calculate phonons for final geometry                         *
********************************************************************************
* ASE calculation                                                              *
********************************************************************************


  Job Started  at 20:10.09 29th July       2020                               

  Number of CPUs =     1


  Total number of configurations input =      1

********************************************************************************
*  Input for Configuration =   1                                               *
********************************************************************************

  Formula = C64                                                         

  Number of irreducible atoms/shells =      64


  Total number atoms/shells =      64

  Dimensionality = 3               :  Bulk   



  Cartesian lattice vectors (Angstroms) :

        7.688900    0.000000    0.000000
        0.000000    7.688900    0.000000
        0.000000    0.000000    7.688900

  Cell parameters (Angstroms/Degrees):

  a =       7.6889    alpha =  90.0000
  b =       7.6889    beta  =  90.0000
  c =       7.6889    gamma =  90.0000

  Initial cell volume =         454.561488 Angs**3

  Shrinking factors =      8     8     8

  Temperature of configuration =   10.0     K 

  Pressure of configuration =         0.000 GPa 

  Fractional coordinates of asymmetric unit :

--------------------------------------------------------------------------------
   No.  Atomic       x           y          z         Charge      Occupancy
        Label      (Frac)      (Frac)     (Frac)        (e)         (Frac)  
--------------------------------------------------------------------------------
      1 C     c    0.476040    0.519880    0.065020     0.00000    1.000000    
      2 C     c    0.408720    0.736970    0.309200     0.00000    1.000000    
      3 C     c    0.290620    0.262370    0.910430     0.00000    1.000000    
      4 C     c    0.103910    0.008110    0.617720     0.00000    1.000000    
      5 C     c    0.956530    0.855400    0.883530     0.00000    1.000000    
      6 C     c    0.795760    0.476400    0.583740     0.00000    1.000000    
      7 C     c    0.616450    0.412330    0.680130     0.00000    1.000000    
      8 C     c    0.787500    0.713180    0.340000     0.00000    1.000000    
      9 C     c    0.884980    0.243000    0.328060     0.00000    1.000000    
     10 C     c    0.688840    0.158460    0.143770     0.00000    1.000000    
     11 C     c    0.869560    0.035020    0.363250     0.00000    1.000000    
     12 C     c    0.950300    0.931500    0.523270     0.00000    1.000000    
     13 C     c    0.517190    0.057900    0.152460     0.00000    1.000000    
     14 C     c    0.549980    0.978250    0.498480     0.00000    1.000000    
     15 C     c    0.469000    0.329450    0.001290     0.00000    1.000000    
     16 C     c    0.950390    0.349150    0.489870     0.00000    1.000000    
     17 C     c    0.159410    0.419290    0.832510     0.00000    1.000000    
     18 C     c    0.829800    0.735200    0.815210     0.00000    1.000000    
     19 C     c    0.910880    0.946430    0.039150     0.00000    1.000000    
     20 C     c    0.143570    0.915970    0.798790     0.00000    1.000000    
     21 C     c    0.869790    0.648280    0.657780     0.00000    1.000000    
     22 C     c    0.890390    0.123460    0.729710     0.00000    1.000000    
     23 C     c    0.497210    0.596280    0.414040     0.00000    1.000000    
     24 C     c    0.651120    0.704770    0.884670     0.00000    1.000000    
     25 C     c    0.640630    0.586160    0.027450     0.00000    1.000000    
     26 C     c    0.789240    0.975680    0.719470     0.00000    1.000000    
     27 C     c    0.474610    0.454540    0.577420     0.00000    1.000000    
     28 C     c    0.359520    0.637950    0.141480     0.00000    1.000000    
     29 C     c    0.590240    0.953580    0.693710     0.00000    1.000000    
     30 C     c    0.716180    0.338670    0.234300     0.00000    1.000000    
     31 C     c    0.010640    0.198750    0.156400     0.00000    1.000000    
     32 C     c    0.971110    0.393940    0.897490     0.00000    1.000000    
     33 C     c    0.503190    0.788670    0.788900     0.00000    1.000000    
     34 C     c    0.851280    0.134850    0.037370     0.00000    1.000000    
     35 C     c    0.354150    0.176700    0.713280     0.00000    1.000000    
     36 C     c    0.114330    0.477480    0.450250     0.00000    1.000000    
     37 C     c    0.185690    0.168820    0.082250     0.00000    1.000000    
     38 C     c    0.281760    0.397460    0.518240     0.00000    1.000000    
     39 C     c    0.100640    0.672430    0.422470     0.00000    1.000000    
     40 C     c    0.932900    0.497510    0.039610     0.00000    1.000000    
     41 C     c    0.835290    0.243260    0.874360     0.00000    1.000000    
     42 C     c    0.377110    0.215120    0.169270     0.00000    1.000000    
     43 C     c    0.393380    0.114630    0.510500     0.00000    1.000000    
     44 C     c    0.977860    0.710070    0.269030     0.00000    1.000000    
     45 C     c    0.396430    0.276940    0.371160     0.00000    1.000000    
     46 C     c    0.559800    0.398000    0.340140     0.00000    1.000000    
     47 C     c    0.306250    0.764680    0.789760     0.00000    1.000000    
     48 C     c    0.923010    0.896030    0.214160     0.00000    1.000000    
     49 C     c    0.766700    0.483980    0.107740     0.00000    1.000000    
     50 C     c    0.253140    0.803220    0.416430     0.00000    1.000000    
     51 C     c    0.703960    0.552370    0.413010     0.00000    1.000000    
     52 C     c    0.955260    0.748390    0.535230     0.00000    1.000000    
     53 C     c    0.229430    0.605440    0.867380     0.00000    1.000000    
     54 C     c    0.040310    0.615760    0.116180     0.00000    1.000000    
     55 C     c    0.625650    0.285280    0.848940     0.00000    1.000000    
     56 C     c    0.437680    0.015240    0.971350     0.00000    1.000000    
     57 C     c    0.519460    0.911360    0.289540     0.00000    1.000000    
     58 C     c    0.204420    0.640820    0.050150     0.00000    1.000000    
     59 C     c    0.036290    0.208880    0.616270     0.00000    1.000000    
     60 C     c    0.255940    0.960330    0.495250     0.00000    1.000000    
     61 C     c    0.712750    0.893820    0.373770     0.00000    1.000000    
     62 C     c    0.241780    0.011110    0.955590     0.00000    1.000000    
     63 C     c    0.515760    0.101210    0.810990     0.00000    1.000000    
     64 C     c    0.199260    0.303590    0.671910     0.00000    1.000000    
--------------------------------------------------------------------------------


  Brillouin zone sampling points :

--------------------------------------------------------------------------------
  Point number          x          y          z            Weight
--------------------------------------------------------------------------------
        1           0.062500   0.062500   0.062500     0.00390625
        2           0.062500   0.062500   0.187500     0.00390625
        3           0.062500   0.062500   0.312500     0.00390625
        4           0.062500   0.062500   0.437500     0.00390625
        5           0.062500   0.062500   0.562500     0.00390625
        6           0.062500   0.062500   0.687500     0.00390625
        7           0.062500   0.062500   0.812500     0.00390625
        8           0.062500   0.062500   0.937500     0.00390625
        9           0.062500   0.187500   0.062500     0.00390625
       10           0.062500   0.187500   0.187500     0.00390625
       11           0.062500   0.187500   0.312500     0.00390625
       12           0.062500   0.187500   0.437500     0.00390625
       13           0.062500   0.187500   0.562500     0.00390625
       14           0.062500   0.187500   0.687500     0.00390625
       15           0.062500   0.187500   0.812500     0.00390625
       16           0.062500   0.187500   0.937500     0.00390625
       17           0.062500   0.312500   0.062500     0.00390625
       18           0.062500   0.312500   0.187500     0.00390625
       19           0.062500   0.312500   0.312500     0.00390625
       20           0.062500   0.312500   0.437500     0.00390625
       21           0.062500   0.312500   0.562500     0.00390625
       22           0.062500   0.312500   0.687500     0.00390625
       23           0.062500   0.312500   0.812500     0.00390625
       24           0.062500   0.312500   0.937500     0.00390625
       25           0.062500   0.437500   0.062500     0.00390625
       26           0.062500   0.437500   0.187500     0.00390625
       27           0.062500   0.437500   0.312500     0.00390625
       28           0.062500   0.437500   0.437500     0.00390625
       29           0.062500   0.437500   0.562500     0.00390625
       30           0.062500   0.437500   0.687500     0.00390625
       31           0.062500   0.437500   0.812500     0.00390625
       32           0.062500   0.437500   0.937500     0.00390625
       33           0.062500   0.562500   0.062500     0.00390625
       34           0.062500   0.562500   0.187500     0.00390625
       35           0.062500   0.562500   0.312500     0.00390625
       36           0.062500   0.562500   0.437500     0.00390625
       37           0.062500   0.562500   0.562500     0.00390625
       38           0.062500   0.562500   0.687500     0.00390625
       39           0.062500   0.562500   0.812500     0.00390625
       40           0.062500   0.562500   0.937500     0.00390625
       41           0.062500   0.687500   0.062500     0.00390625
       42           0.062500   0.687500   0.187500     0.00390625
       43           0.062500   0.687500   0.312500     0.00390625
       44           0.062500   0.687500   0.437500     0.00390625
       45           0.062500   0.687500   0.562500     0.00390625
       46           0.062500   0.687500   0.687500     0.00390625
       47           0.062500   0.687500   0.812500     0.00390625
       48           0.062500   0.687500   0.937500     0.00390625
       49           0.062500   0.812500   0.062500     0.00390625
       50           0.062500   0.812500   0.187500     0.00390625
       51           0.062500   0.812500   0.312500     0.00390625
       52           0.062500   0.812500   0.437500     0.00390625
       53           0.062500   0.812500   0.562500     0.00390625
       54           0.062500   0.812500   0.687500     0.00390625
       55           0.062500   0.812500   0.812500     0.00390625
       56           0.062500   0.812500   0.937500     0.00390625
       57           0.062500   0.937500   0.062500     0.00390625
       58           0.062500   0.937500   0.187500     0.00390625
       59           0.062500   0.937500   0.312500     0.00390625
       60           0.062500   0.937500   0.437500     0.00390625
       61           0.062500   0.937500   0.562500     0.00390625
       62           0.062500   0.937500   0.687500     0.00390625
       63           0.062500   0.937500   0.812500     0.00390625
       64           0.062500   0.937500   0.937500     0.00390625
       65           0.187500   0.062500   0.062500     0.00390625
       66           0.187500   0.062500   0.187500     0.00390625
       67           0.187500   0.062500   0.312500     0.00390625
       68           0.187500   0.062500   0.437500     0.00390625
       69           0.187500   0.062500   0.562500     0.00390625
       70           0.187500   0.062500   0.687500     0.00390625
       71           0.187500   0.062500   0.812500     0.00390625
       72           0.187500   0.062500   0.937500     0.00390625
       73           0.187500   0.187500   0.062500     0.00390625
       74           0.187500   0.187500   0.187500     0.00390625
       75           0.187500   0.187500   0.312500     0.00390625
       76           0.187500   0.187500   0.437500     0.00390625
       77           0.187500   0.187500   0.562500     0.00390625
       78           0.187500   0.187500   0.687500     0.00390625
       79           0.187500   0.187500   0.812500     0.00390625
       80           0.187500   0.187500   0.937500     0.00390625
       81           0.187500   0.312500   0.062500     0.00390625
       82           0.187500   0.312500   0.187500     0.00390625
       83           0.187500   0.312500   0.312500     0.00390625
       84           0.187500   0.312500   0.437500     0.00390625
       85           0.187500   0.312500   0.562500     0.00390625
       86           0.187500   0.312500   0.687500     0.00390625
       87           0.187500   0.312500   0.812500     0.00390625
       88           0.187500   0.312500   0.937500     0.00390625
       89           0.187500   0.437500   0.062500     0.00390625
       90           0.187500   0.437500   0.187500     0.00390625
       91           0.187500   0.437500   0.312500     0.00390625
       92           0.187500   0.437500   0.437500     0.00390625
       93           0.187500   0.437500   0.562500     0.00390625
       94           0.187500   0.437500   0.687500     0.00390625
       95           0.187500   0.437500   0.812500     0.00390625
       96           0.187500   0.437500   0.937500     0.00390625
       97           0.187500   0.562500   0.062500     0.00390625
       98           0.187500   0.562500   0.187500     0.00390625
       99           0.187500   0.562500   0.312500     0.00390625
      100           0.187500   0.562500   0.437500     0.00390625
      101           0.187500   0.562500   0.562500     0.00390625
      102           0.187500   0.562500   0.687500     0.00390625
      103           0.187500   0.562500   0.812500     0.00390625
      104           0.187500   0.562500   0.937500     0.00390625
      105           0.187500   0.687500   0.062500     0.00390625
      106           0.187500   0.687500   0.187500     0.00390625
      107           0.187500   0.687500   0.312500     0.00390625
      108           0.187500   0.687500   0.437500     0.00390625
      109           0.187500   0.687500   0.562500     0.00390625
      110           0.187500   0.687500   0.687500     0.00390625
      111           0.187500   0.687500   0.812500     0.00390625
      112           0.187500   0.687500   0.937500     0.00390625
      113           0.187500   0.812500   0.062500     0.00390625
      114           0.187500   0.812500   0.187500     0.00390625
      115           0.187500   0.812500   0.312500     0.00390625
      116           0.187500   0.812500   0.437500     0.00390625
      117           0.187500   0.812500   0.562500     0.00390625
      118           0.187500   0.812500   0.687500     0.00390625
      119           0.187500   0.812500   0.812500     0.00390625
      120           0.187500   0.812500   0.937500     0.00390625
      121           0.187500   0.937500   0.062500     0.00390625
      122           0.187500   0.937500   0.187500     0.00390625
      123           0.187500   0.937500   0.312500     0.00390625
      124           0.187500   0.937500   0.437500     0.00390625
      125           0.187500   0.937500   0.562500     0.00390625
      126           0.187500   0.937500   0.687500     0.00390625
      127           0.187500   0.937500   0.812500     0.00390625
      128           0.187500   0.937500   0.937500     0.00390625
      129           0.312500   0.062500   0.062500     0.00390625
      130           0.312500   0.062500   0.187500     0.00390625
      131           0.312500   0.062500   0.312500     0.00390625
      132           0.312500   0.062500   0.437500     0.00390625
      133           0.312500   0.062500   0.562500     0.00390625
      134           0.312500   0.062500   0.687500     0.00390625
      135           0.312500   0.062500   0.812500     0.00390625
      136           0.312500   0.062500   0.937500     0.00390625
      137           0.312500   0.187500   0.062500     0.00390625
      138           0.312500   0.187500   0.187500     0.00390625
      139           0.312500   0.187500   0.312500     0.00390625
      140           0.312500   0.187500   0.437500     0.00390625
      141           0.312500   0.187500   0.562500     0.00390625
      142           0.312500   0.187500   0.687500     0.00390625
      143           0.312500   0.187500   0.812500     0.00390625
      144           0.312500   0.187500   0.937500     0.00390625
      145           0.312500   0.312500   0.062500     0.00390625
      146           0.312500   0.312500   0.187500     0.00390625
      147           0.312500   0.312500   0.312500     0.00390625
      148           0.312500   0.312500   0.437500     0.00390625
      149           0.312500   0.312500   0.562500     0.00390625
      150           0.312500   0.312500   0.687500     0.00390625
      151           0.312500   0.312500   0.812500     0.00390625
      152           0.312500   0.312500   0.937500     0.00390625
      153           0.312500   0.437500   0.062500     0.00390625
      154           0.312500   0.437500   0.187500     0.00390625
      155           0.312500   0.437500   0.312500     0.00390625
      156           0.312500   0.437500   0.437500     0.00390625
      157           0.312500   0.437500   0.562500     0.00390625
      158           0.312500   0.437500   0.687500     0.00390625
      159           0.312500   0.437500   0.812500     0.00390625
      160           0.312500   0.437500   0.937500     0.00390625
      161           0.312500   0.562500   0.062500     0.00390625
      162           0.312500   0.562500   0.187500     0.00390625
      163           0.312500   0.562500   0.312500     0.00390625
      164           0.312500   0.562500   0.437500     0.00390625
      165           0.312500   0.562500   0.562500     0.00390625
      166           0.312500   0.562500   0.687500     0.00390625
      167           0.312500   0.562500   0.812500     0.00390625
      168           0.312500   0.562500   0.937500     0.00390625
      169           0.312500   0.687500   0.062500     0.00390625
      170           0.312500   0.687500   0.187500     0.00390625
      171           0.312500   0.687500   0.312500     0.00390625
      172           0.312500   0.687500   0.437500     0.00390625
      173           0.312500   0.687500   0.562500     0.00390625
      174           0.312500   0.687500   0.687500     0.00390625
      175           0.312500   0.687500   0.812500     0.00390625
      176           0.312500   0.687500   0.937500     0.00390625
      177           0.312500   0.812500   0.062500     0.00390625
      178           0.312500   0.812500   0.187500     0.00390625
      179           0.312500   0.812500   0.312500     0.00390625
      180           0.312500   0.812500   0.437500     0.00390625
      181           0.312500   0.812500   0.562500     0.00390625
      182           0.312500   0.812500   0.687500     0.00390625
      183           0.312500   0.812500   0.812500     0.00390625
      184           0.312500   0.812500   0.937500     0.00390625
      185           0.312500   0.937500   0.062500     0.00390625
      186           0.312500   0.937500   0.187500     0.00390625
      187           0.312500   0.937500   0.312500     0.00390625
      188           0.312500   0.937500   0.437500     0.00390625
      189           0.312500   0.937500   0.562500     0.00390625
      190           0.312500   0.937500   0.687500     0.00390625
      191           0.312500   0.937500   0.812500     0.00390625
      192           0.312500   0.937500   0.937500     0.00390625
      193           0.437500   0.062500   0.062500     0.00390625
      194           0.437500   0.062500   0.187500     0.00390625
      195           0.437500   0.062500   0.312500     0.00390625
      196           0.437500   0.062500   0.437500     0.00390625
      197           0.437500   0.062500   0.562500     0.00390625
      198           0.437500   0.062500   0.687500     0.00390625
      199           0.437500   0.062500   0.812500     0.00390625
      200           0.437500   0.062500   0.937500     0.00390625
      201           0.437500   0.187500   0.062500     0.00390625
      202           0.437500   0.187500   0.187500     0.00390625
      203           0.437500   0.187500   0.312500     0.00390625
      204           0.437500   0.187500   0.437500     0.00390625
      205           0.437500   0.187500   0.562500     0.00390625
      206           0.437500   0.187500   0.687500     0.00390625
      207           0.437500   0.187500   0.812500     0.00390625
      208           0.437500   0.187500   0.937500     0.00390625
      209           0.437500   0.312500   0.062500     0.00390625
      210           0.437500   0.312500   0.187500     0.00390625
      211           0.437500   0.312500   0.312500     0.00390625
      212           0.437500   0.312500   0.437500     0.00390625
      213           0.437500   0.312500   0.562500     0.00390625
      214           0.437500   0.312500   0.687500     0.00390625
      215           0.437500   0.312500   0.812500     0.00390625
      216           0.437500   0.312500   0.937500     0.00390625
      217           0.437500   0.437500   0.062500     0.00390625
      218           0.437500   0.437500   0.187500     0.00390625
      219           0.437500   0.437500   0.312500     0.00390625
      220           0.437500   0.437500   0.437500     0.00390625
      221           0.437500   0.437500   0.562500     0.00390625
      222           0.437500   0.437500   0.687500     0.00390625
      223           0.437500   0.437500   0.812500     0.00390625
      224           0.437500   0.437500   0.937500     0.00390625
      225           0.437500   0.562500   0.062500     0.00390625
      226           0.437500   0.562500   0.187500     0.00390625
      227           0.437500   0.562500   0.312500     0.00390625
      228           0.437500   0.562500   0.437500     0.00390625
      229           0.437500   0.562500   0.562500     0.00390625
      230           0.437500   0.562500   0.687500     0.00390625
      231           0.437500   0.562500   0.812500     0.00390625
      232           0.437500   0.562500   0.937500     0.00390625
      233           0.437500   0.687500   0.062500     0.00390625
      234           0.437500   0.687500   0.187500     0.00390625
      235           0.437500   0.687500   0.312500     0.00390625
      236           0.437500   0.687500   0.437500     0.00390625
      237           0.437500   0.687500   0.562500     0.00390625
      238           0.437500   0.687500   0.687500     0.00390625
      239           0.437500   0.687500   0.812500     0.00390625
      240           0.437500   0.687500   0.937500     0.00390625
      241           0.437500   0.812500   0.062500     0.00390625
      242           0.437500   0.812500   0.187500     0.00390625
      243           0.437500   0.812500   0.312500     0.00390625
      244           0.437500   0.812500   0.437500     0.00390625
      245           0.437500   0.812500   0.562500     0.00390625
      246           0.437500   0.812500   0.687500     0.00390625
      247           0.437500   0.812500   0.812500     0.00390625
      248           0.437500   0.812500   0.937500     0.00390625
      249           0.437500   0.937500   0.062500     0.00390625
      250           0.437500   0.937500   0.187500     0.00390625
      251           0.437500   0.937500   0.312500     0.00390625
      252           0.437500   0.937500   0.437500     0.00390625
      253           0.437500   0.937500   0.562500     0.00390625
      254           0.437500   0.937500   0.687500     0.00390625
      255           0.437500   0.937500   0.812500     0.00390625
      256           0.437500   0.937500   0.937500     0.00390625
--------------------------------------------------------------------------------


********************************************************************************
*  General input information                                                   *
********************************************************************************

  Species output for all configurations : 

--------------------------------------------------------------------------------
  Species    Type    Atomic    Atomic    Charge       Radii (Angs)     Library
                     Number     Mass       (e)     Cova   Ionic  VDW   Symbol
--------------------------------------------------------------------------------
    C        Core        6      12.01   0.000000   0.770  0.000  1.530          
--------------------------------------------------------------------------------


  Lattice summation method               =    Ewald          (3-D)
                                         =    Parry          (2-D)
                                         =    Saunders et al (1-D)
  Accuracy factor for lattice sums       =   12.000


  Analytic derivatives to be used

  Time limit = Infinity

  Maximum range for interatomic potentials =    100000.000000 Angstroms

  Brenner et al 2002 potential to be used with explicit splines for P


********************************************************************************
*  Output for configuration   1                                                *
********************************************************************************


  Components of energy : 

--------------------------------------------------------------------------------
  Interatomic potentials     =           0.00000000 eV    
  Brenner potentials         =        -421.80963952 eV    
  Monopole - monopole (real) =           0.00000000 eV    
  Monopole - monopole (recip)=           0.00000000 eV    
  Monopole - monopole (total)=           0.00000000 eV    
--------------------------------------------------------------------------------
  Total lattice energy       =        -421.80963952 eV    
--------------------------------------------------------------------------------
  Total lattice energy       =          -40698.1823 kJ/(mole unit cells)
--------------------------------------------------------------------------------


  Elastic Constant Matrix: (Units=GPa)

-------------------------------------------------------------------------------
  Indices      1         2         3         4         5         6    
-------------------------------------------------------------------------------
       1    511.7550  190.2922  168.0120   22.8599  -37.0136   27.5211
       2    190.2922  355.9942  154.6665   -2.3857    2.8607   20.7830
       3    168.0120  154.6665  401.7019    7.0326  -51.8402  -14.2310
       4     22.8599   -2.3857    7.0326  145.9273  -28.4595   -9.3963
       5    -37.0136    2.8607  -51.8402  -28.4595  125.4131   26.4958
       6     27.5211   20.7830  -14.2310   -9.3963   26.4958  132.8414
-------------------------------------------------------------------------------


  Elastic Compliance Matrix: (Units=1/GPa)

-------------------------------------------------------------------------------
  Indices      1         2         3         4         5         6    
-------------------------------------------------------------------------------
       1    0.002667 -0.001130 -0.000617 -0.000326  0.000608 -0.000586
       2   -0.001130  0.003946 -0.001165  0.000119 -0.000807 -0.000339
       3   -0.000617 -0.001165  0.003361  0.000174  0.001179  0.000447
       4   -0.000326  0.000119  0.000174  0.007218  0.001554  0.000268
       5    0.000608 -0.000807  0.001179  0.001554  0.009356 -0.001630
       6   -0.000586 -0.000339  0.000447  0.000268 -0.001630  0.008094
-------------------------------------------------------------------------------

  Mechanical properties :

-------------------------------------------------------------------------------
  Convention :                    Reuss         Voigt         Hill
-------------------------------------------------------------------------------
  Bulk  Modulus (GPa)     =     240.96665     255.04359     248.00512
  Shear Modulus (GPa)     =     119.47648     131.26840     125.37244
-------------------------------------------------------------------------------
  Velocity S-wave (km/s)  =       6.52301       6.83734       6.68202
  Velocity P-wave (km/s)  =      11.93940      12.37586      12.15959
-------------------------------------------------------------------------------
  Compressibility (1/GPa) =    0.00414995
-------------------------------------------------------------------------------
  Stress axis :                     x             y             z
-------------------------------------------------------------------------------
  Youngs Moduli (GPa)     =     374.96177     253.39272     297.54716
-------------------------------------------------------------------------------
  Poissons Ratio (x)      =                     0.28645       0.18353
  Poissons Ratio (y)      =       0.42388                     0.34660
  Poissons Ratio (z)      =       0.23128       0.29517
-------------------------------------------------------------------------------


  Piezoelectric Strain Matrix: (Units=C/m**2)

-------------------------------------------------------------------------------
  Indices      1         2         3         4         5         6    
-------------------------------------------------------------------------------
       x    -0.00000  -0.00000  -0.00000  -0.00000  -0.00000  -0.00000
       y    -0.00000  -0.00000  -0.00000  -0.00000  -0.00000  -0.00000
       z    -0.00000  -0.00000  -0.00000  -0.00000  -0.00000  -0.00000
-------------------------------------------------------------------------------


  Piezoelectric Stress Matrix: (Units=10**-11 C/N)

-------------------------------------------------------------------------------
  Indices      1         2         3         4         5         6    
-------------------------------------------------------------------------------
       x     0.00000   0.00000   0.00000   0.00000   0.00000   0.00000
       y     0.00000   0.00000   0.00000   0.00000   0.00000   0.00000
       z     0.00000   0.00000   0.00000   0.00000   0.00000   0.00000
-------------------------------------------------------------------------------


  Static dielectric constant tensor : 

-------------------------------------------------------------------------------
              x         y         z
-------------------------------------------------------------------------------
       x     1.00000   0.00000   0.00000
       y     0.00000   1.00000   0.00000
       z     0.00000   0.00000   1.00000
--------------------------------------------------------------------------------

  Static refractive indices : 

-------------------------------------------------------------------------------
    1 =    1.00000      2 =    1.00000      3 =    1.00000
-------------------------------------------------------------------------------


  Phonon Calculation : 

  Number of k points for this configuration =      256

--------------------------------------------------------------------------------
  K point      1 =   0.062500  0.062500  0.062500  Weight =    0.004
--------------------------------------------------------------------------------

  Frequencies (cm-1) [NB: Negative implies an imaginary mode]:

   26.05   33.51   57.03  143.64  178.22  210.34  222.40  229.63  235.96
  249.72  258.42  264.05  271.30  280.49  289.95  301.02  303.78  312.29
  323.17  327.88  332.72  343.42  349.20  362.60  368.34  375.96  385.74
  393.05  399.35  406.27  410.79  418.33  427.12  432.85  437.81  447.03
  448.70  455.76  463.86  468.21  475.76  485.37  492.33  504.68  506.30
  518.62  524.98  534.21  539.62  548.73  557.70  561.05  572.60  577.42
  583.56  593.23  596.14  602.82  607.89  613.12  619.96  629.99  634.41
  641.83  650.86  658.99  664.92  667.01  680.29  681.15  690.84  699.52
  705.72  716.54  727.35  733.37  742.60  748.38  755.11  760.98  763.34
  768.73  774.83  790.51  800.45  804.40  810.03  813.97  823.91  830.10
  835.69  844.65  850.29  862.67  874.10  882.71  890.55  898.83  902.31
  911.07  921.36  926.87  938.31  942.55  950.58  960.46  965.42  972.93
  977.10  983.06  993.30  996.81 1009.01 1012.27 1019.68 1029.63 1035.66
 1045.46 1050.65 1066.08 1068.34 1081.02 1089.14 1095.81 1103.43 1111.53
 1124.91 1127.91 1132.25 1145.88 1159.72 1162.90 1180.20 1192.70 1200.13
 1208.80 1219.47 1224.99 1230.17 1234.42 1242.89 1252.63 1265.46 1271.36
 1288.92 1294.55 1306.48 1309.68 1321.09 1334.09 1346.74 1366.06 1375.81
 1378.80 1391.11 1405.68 1411.29 1422.39 1442.94 1445.44 1468.19 1484.58
 1498.93 1505.26 1519.99 1532.15 1541.25 1550.25 1568.86 1621.93 1635.69
 1694.11 1722.53 1745.88 1775.45 1815.41 1831.38 1842.45 1868.74 1902.87
 1948.39 1992.82 2026.50 2220.74 2228.97 2363.84 2485.77 2566.74 2591.22
 2828.45 2840.44 3108.99


--------------------------------------------------------------------------------
  K point      2 =   0.062500  0.062500  0.187500  Weight =    0.004
--------------------------------------------------------------------------------

  Frequencies (cm-1) [NB: Negative implies an imaginary mode]:

   58.29   66.51   95.69  144.72  177.48  201.51  222.40  228.62  233.71
  248.95  254.40  258.00  266.11  277.92  293.93  299.63  303.69  312.35
  320.40  327.06  337.50  345.28  351.61  361.29  371.49  378.02  386.29
  392.77  396.49  402.90  410.78  419.86  423.85  430.38  437.10  447.21
  449.76  456.67  468.48  471.64  480.73  485.18  496.84  500.48  508.73
  518.01  526.79  533.90  536.52  547.01  557.07  561.75  569.12  574.70
  581.29  586.05  597.49  600.07  608.10  613.64  621.51  628.15  638.23
  642.53  649.17  658.36  662.21  670.16  678.21  685.92  690.80  700.38
  707.37  713.93  725.74  732.21  744.22  747.76  753.55  759.32  764.69
  770.49  775.87  790.93  801.29  804.57  809.73  813.59  825.44  828.26
  833.91  848.74  852.26  865.42  868.13  878.63  890.63  897.15  903.69
  916.54  919.15  927.13  938.92  944.11  948.71  960.17  966.37  971.87
  977.52  980.68  991.92 1001.18 1009.93 1015.30 1020.65 1027.50 1033.52
 1047.82 1053.87 1065.45 1069.81 1080.99 1090.01 1094.52 1102.56 1109.84
 1123.94 1128.39 1130.92 1145.47 1159.82 1163.97 1181.93 1186.80 1202.75
 1207.90 1219.32 1223.96 1229.68 1234.25 1243.81 1253.69 1266.54 1268.88
 1288.23 1295.25 1307.08 1311.97 1320.10 1333.94 1349.77 1364.61 1374.95
 1378.97 1390.03 1404.63 1411.48 1423.26 1442.66 1445.61 1469.24 1484.41
 1499.98 1504.64 1518.59 1532.63 1541.24 1550.80 1568.83 1621.63 1635.71
 1694.08 1722.51 1745.79 1775.46 1815.40 1831.42 1842.51 1868.70 1902.87
 1948.59 1992.82 2026.34 2220.74 2228.97 2363.84 2485.77 2566.77 2591.22
 2828.45 2840.43 3108.99


--------------------------------------------------------------------------------
  K point      3 =   0.062500  0.062500  0.312500  Weight =    0.004
--------------------------------------------------------------------------------

  Frequencies (cm-1) [NB: Negative implies an imaginary mode]:

   87.66   96.08  130.76  161.49  176.22  193.40  215.06  222.32  232.78
  240.45  246.54  256.80  264.59  273.83  295.40  297.91  305.06  309.62
  320.68  323.50  340.95  348.86  351.90  360.86  371.37  375.90  386.62
  389.04  393.68  402.30  414.40  417.89  425.13  429.55  441.26  449.83
  453.91  458.87  467.71  474.78  483.34  486.68  495.89  502.63  514.95
  517.44  523.28  531.74  537.29  542.64  555.26  562.22  567.84  571.96
  577.15  582.01  593.96  598.74  607.30  615.30  624.11  625.87  635.17
  638.67  650.98  658.29  664.66  669.84  680.71  685.61  690.24  698.81
  708.85  715.09  728.52  732.40  740.16  747.90  751.08  760.85  762.77
  773.39  781.91  788.87  796.61  806.42  809.59  815.56  824.03  830.09
  838.03  851.65  854.45  861.67  866.29  874.94  888.69  895.46  906.95
  914.99  922.06  924.46  936.73  944.08  950.00  962.80  964.85  969.11
  978.13  981.84  993.51 1004.44 1006.56 1017.53 1021.25 1027.96 1036.64
 1050.26 1056.77 1064.51 1071.93 1082.07 1089.68 1094.63 1100.25 1105.12
 1122.43 1125.71 1133.55 1145.16 1160.15 1165.89 1179.68 1186.00 1203.24
 1207.82 1218.48 1221.64 1228.73 1234.91 1244.46 1253.31 1265.76 1268.99
 1287.27 1296.17 1307.14 1316.23 1319.60 1333.82 1353.28 1362.76 1374.37
 1378.08 1388.23 1403.32 1411.70 1425.10 1441.91 1445.97 1470.59 1484.05
 1501.28 1503.95 1516.80 1533.19 1541.11 1551.70 1568.76 1621.20 1635.73
 1694.03 1722.47 1745.65 1775.48 1815.40 1831.48 1842.57 1868.65 1902.88
 1948.88 1992.82 2026.11 2220.74 2228.97 2363.84 2485.77 2566.81 2591.22
 2828.44 2840.41 3108.99


--------------------------------------------------------------------------------
  K point      4 =   0.062500  0.062500  0.437500  Weight =    0.004
--------------------------------------------------------------------------------

  Frequencies (cm-1) [NB: Negative implies an imaginary mode]:

   97.36  126.62  145.00  165.19  186.97  195.21  207.12  217.72  225.57
  232.95  246.15  260.38  265.95  273.50  290.04  295.32  300.39  308.49
  313.59  327.82  341.69  349.64  351.55  357.38  366.47  377.96  383.17
  386.71  398.83  401.63  414.16  421.51  428.49  432.27  441.14  453.09
  457.00  463.51  467.47  475.69  480.97  489.16  495.86  503.29  510.76
  518.37  521.09  533.58  538.59  542.38  551.42  563.25  566.38  571.61
  576.54  580.06  589.61  597.02  607.77  614.47  621.63  626.10  633.88
  636.70  652.94  659.46  661.48  670.99  681.62  684.49  689.38  699.21
  708.87  719.18  728.13  736.43  741.14  744.97  751.80  757.50  764.04
  774.14  781.46  788.50  795.59  805.45  809.34  818.72  824.75  833.37
  841.79  850.13  853.20  861.73  866.30  874.48  886.79  893.84  908.79
  911.80  920.01  925.30  933.32  945.09  951.39  959.87  965.27  971.78
  979.08  982.78  995.32 1000.86 1008.01 1016.57 1022.91 1028.94 1042.14
 1051.84 1058.48 1063.96 1073.54 1082.94 1088.01 1093.70 1097.43 1103.93
 1121.85 1122.89 1134.85 1145.75 1161.54 1166.66 1176.63 1188.04 1201.97
 1208.81 1215.94 1221.80 1227.37 1234.90 1245.23 1252.02 1264.25 1270.62
 1286.55 1296.97 1306.75 1317.71 1322.20 1333.47 1354.18 1363.36 1374.09
 1375.87 1387.13 1402.65 1411.76 1426.81 1441.26 1446.14 1471.44 1483.76
 1501.59 1504.09 1515.59 1533.59 1540.90 1552.40 1568.69 1620.89 1635.75
 1694.00 1722.45 1745.56 1775.48 1815.39 1831.53 1842.60 1868.62 1902.88
 1949.09 1992.82 2025.95 2220.74 2228.97 2363.84 2485.77 2566.84 2591.22
 2828.44 2840.40 3108.99


--------------------------------------------------------------------------------
  K point      5 =   0.062500  0.062500  0.562500  Weight =    0.004
--------------------------------------------------------------------------------

  Frequencies (cm-1) [NB: Negative implies an imaginary mode]:

   91.62  137.50  147.80  160.05  187.25  199.76  208.04  213.86  222.40
  232.33  249.35  260.07  267.03  277.14  282.38  291.45  296.98  311.12
  316.40  332.09  338.82  351.06  353.21  356.73  364.08  377.12  380.88
  387.55  396.10  404.02  415.87  422.19  427.70  431.43  442.05  451.15
  455.18  465.71  469.02  478.25  483.37  489.88  494.68  504.51  509.71
  514.57  526.59  530.84  536.15  543.97  549.97  562.04  564.74  571.31
  579.95  584.85  591.27  596.84  605.23  610.04  621.08  625.18  633.17
  638.04  651.95  657.24  663.09  672.49  679.41  685.36  687.94  700.39
  711.88  719.81  729.64  736.17  741.28  743.99  754.12  759.07  761.79
  772.03  780.94  788.35  795.69  799.96  811.72  820.36  827.07  834.53
  843.93  846.91  851.97  860.99  868.85  875.77  888.39  893.76  907.87
  910.42  918.21  925.14  932.23  944.79  949.36  961.26  963.36  972.79
  979.00  985.56  996.12 1001.16 1006.78 1015.52 1023.13 1031.13 1042.50
 1049.82 1058.35 1064.06 1073.07 1083.25 1089.23 1091.64 1099.34 1105.08
 1121.09 1122.87 1133.97 1145.60 1162.90 1165.91 1177.90 1188.58 1201.62
 1208.17 1214.76 1222.68 1227.42 1234.32 1245.30 1251.18 1263.78 1270.62
 1287.16 1297.52 1306.49 1317.05 1324.15 1332.81 1353.37 1364.55 1374.01
 1374.57 1387.53 1402.86 1411.66 1427.12 1441.50 1445.92 1471.08 1483.94
 1500.59 1504.97 1515.59 1533.72 1540.79 1552.48 1568.68 1620.90 1635.75
 1694.00 1722.45 1745.56 1775.48 1815.39 1831.53 1842.58 1868.64 1902.88
 1949.09 1992.82 2025.95 2220.74 2228.97 2363.84 2485.77 2566.84 2591.22
 2828.44 2840.40 3108.99


--------------------------------------------------------------------------------
  K point      6 =   0.062500  0.062500  0.687500  Weight =    0.004
--------------------------------------------------------------------------------

  Frequencies (cm-1) [NB: Negative implies an imaginary mode]:

   75.97  106.22  148.42  166.08  168.78  195.63  209.04  218.07  232.37
  237.56  246.96  258.81  268.61  280.04  286.82  291.76  298.09  314.96
  320.91  331.97  340.68  349.24  353.86  357.82  364.15  373.57  380.22
  391.00  396.26  404.61  417.16  419.02  424.07  430.30  441.49  446.97
  453.55  459.08  470.96  478.44  482.30  491.52  500.77  502.11  510.85
  515.77  522.85  533.18  536.52  542.81  550.80  559.49  568.45  574.99
  579.89  587.73  594.40  598.44  603.68  612.47  622.46  625.90  629.92
  641.93  647.43  655.24  663.10  674.46  677.22  684.81  689.89  700.57
  714.71  718.97  729.16  733.88  739.83  748.01  752.85  757.33  764.09
  772.33  779.15  788.22  794.94  800.72  812.22  817.37  828.16  832.27
  839.96  847.18  855.57  862.40  869.64  875.66  890.02  897.49  906.65
  909.46  919.27  923.24  935.09  941.89  948.55  958.17  966.33  970.45
  980.64  985.52  996.79 1003.33 1004.92 1014.11 1021.82 1032.43 1040.30
 1045.32 1055.26 1064.37 1071.60 1084.23 1089.86 1093.07 1103.67 1106.10
 1121.30 1125.05 1132.34 1144.39 1162.68 1165.49 1180.27 1189.01 1202.01
 1207.06 1215.65 1222.73 1229.18 1234.46 1243.85 1251.16 1264.19 1269.71
 1288.61 1297.52 1306.62 1315.33 1322.98 1332.74 1351.89 1364.17 1374.35
 1376.06 1388.82 1403.80 1411.45 1425.88 1442.62 1445.35 1469.78 1484.41
 1499.42 1505.55 1516.82 1533.45 1540.85 1551.90 1568.73 1621.21 1635.73
 1694.03 1722.47 1745.65 1775.47 1815.39 1831.49 1842.51 1868.69 1902.88
 1948.88 1992.82 2026.11 2220.74 2228.97 2363.84 2485.77 2566.81 2591.22
 2828.44 2840.41 3108.99


--------------------------------------------------------------------------------
  K point      7 =   0.062500  0.062500  0.812500  Weight =    0.004
--------------------------------------------------------------------------------

  Frequencies (cm-1) [NB: Negative implies an imaginary mode]:

   55.31   69.80  107.45  151.69  175.61  199.40  212.37  227.87  235.50
  245.67  256.21  261.08  271.03  280.59  289.72  295.84  298.27  315.57
  321.50  329.20  339.04  344.22  352.23  360.55  366.60  375.06  379.27
  393.83  397.00  408.05  412.40  421.24  422.58  432.80  438.71  445.28
  450.15  458.08  469.61  472.30  479.23  487.89  494.21  502.78  511.23
  518.65  527.47  531.11  540.57  543.91  552.90  559.66  569.44  579.47
  583.15  588.32  597.77  600.56  603.37  614.76  622.71  629.41  632.32
  640.06  646.48  656.18  659.74  675.19  677.87  681.61  692.33  697.68
  712.29  720.45  730.51  734.18  738.46  746.91  752.67  757.75  763.42
  774.09  779.20  790.01  793.58  804.09  807.95  816.34  826.40  829.67
  837.23  850.75  854.58  860.56  871.76  881.03  888.77  897.12  905.27
  910.59  919.30  926.69  936.46  940.62  949.27  955.69  967.40  971.45
  980.44  984.39  994.07 1003.12 1005.60 1012.81 1019.12 1032.64 1038.55
 1044.51 1051.13 1064.83 1069.94 1083.88 1088.62 1094.87 1105.43 1109.43
 1122.37 1127.54 1131.44 1144.29 1160.94 1165.38 1179.84 1192.33 1201.07
 1207.20 1217.97 1223.23 1229.70 1235.90 1241.78 1251.19 1264.94 1269.90
 1289.51 1296.74 1306.63 1312.43 1321.63 1333.31 1348.79 1365.10 1375.02
 1377.78 1390.21 1405.00 1411.28 1424.10 1443.52 1444.86 1468.49 1484.67
 1498.61 1505.75 1518.64 1532.82 1541.02 1551.01 1568.80 1621.64 1635.71
 1694.08 1722.51 1745.79 1775.46 1815.40 1831.43 1842.45 1868.74 1902.87
 1948.60 1992.82 2026.34 2220.74 2228.97 2363.84 2485.77 2566.77 2591.22
 2828.45 2840.43 3108.99


--------------------------------------------------------------------------------
  K point      8 =   0.062500  0.062500  0.937500  Weight =    0.004
--------------------------------------------------------------------------------

  Frequencies (cm-1) [NB: Negative implies an imaginary mode]:

   34.66   35.51   57.57  146.63  178.41  207.32  220.05  226.56  238.72
  250.45  261.51  263.91  270.47  281.06  292.46  294.85  303.32  314.11
  323.06  329.27  332.87  343.43  347.92  362.34  365.83  376.60  384.17
  391.80  400.13  405.93  412.21  420.57  426.82  431.90  440.32  445.15
  449.70  457.31  464.04  467.63  476.52  483.66  492.74  502.20  509.09
  519.32  525.50  534.97  540.91  545.66  556.68  562.58  568.58  579.10
  587.93  592.21  598.93  601.08  607.24  612.70  620.16  629.72  633.56
  639.10  652.39  656.94  661.22  671.26  677.55  682.96  691.80  694.47
  710.53  718.48  731.46  733.22  739.89  745.59  754.09  760.50  763.96
  770.56  778.60  790.69  795.28  804.40  808.00  816.13  823.50  830.12
  837.82  847.71  850.92  860.08  874.51  886.80  887.50  896.10  904.76
  909.28  921.38  928.24  934.80  941.94  951.05  958.15  965.56  973.58
  978.89  983.72  992.38 1000.22 1005.76 1011.57 1019.15 1032.16 1037.64
 1044.62 1048.93 1065.85 1068.39 1082.29 1088.54 1095.88 1104.48 1111.39
 1123.43 1128.81 1132.20 1145.37 1159.53 1164.14 1179.42 1196.13 1198.20
 1208.40 1219.40 1224.19 1230.00 1235.85 1241.52 1251.50 1265.16 1271.42
 1289.49 1295.24 1306.30 1310.03 1321.46 1333.95 1346.32 1366.15 1375.90
 1378.42 1391.10 1405.78 1411.23 1422.76 1443.21 1445.23 1467.88 1484.66
 1498.45 1505.64 1520.02 1532.21 1541.17 1550.34 1568.85 1621.94 1635.69
 1694.11 1722.53 1745.88 1775.45 1815.40 1831.38 1842.43 1868.76 1902.87
 1948.39 1992.82 2026.50 2220.74 2228.97 2363.84 2485.77 2566.74 2591.22
 2828.45 2840.44 3108.99


--------------------------------------------------------------------------------
  K point      9 =   0.062500  0.187500  0.062500  Weight =    0.004
--------------------------------------------------------------------------------

  Frequencies (cm-1) [NB: Negative implies an imaginary mode]:

   53.79   64.67  102.52  146.94  175.79  208.82  216.68  225.69  236.28
  249.19  253.10  261.82  271.73  281.47  283.16  298.01  306.38  312.60
  322.28  327.13  331.68  344.26  348.19  362.00  366.43  371.32  380.01
  389.95  400.34  405.61  414.36  420.52  431.62  433.36  435.24  443.66
  448.63  458.99  463.15  470.44  477.04  483.08  491.34  504.52  510.45
  518.92  529.05  529.87  539.20  552.38  554.51  558.42  569.31  574.71
  582.73  588.49  595.35  601.48  614.20  618.01  622.50  631.49  635.23
  647.78  649.05  660.94  667.00  672.48  681.59  685.92  689.01  699.72
  703.40  717.15  723.47  731.68  736.56  746.04  753.94  760.32  764.05
  771.38  774.05  791.84  795.23  802.15  810.21  815.24  827.09  827.44
  835.95  847.35  854.11  862.50  873.05  882.61  890.24  899.10  902.29
  911.15  920.24  925.16  935.31  944.44  953.66  962.73  965.53  971.03
  976.20  982.48  991.41  997.37 1008.71 1012.21 1020.15 1027.46 1038.28
 1046.80 1052.89 1065.05 1069.46 1080.42 1090.64 1094.38 1102.77 1110.18
 1124.48 1127.05 1132.33 1143.10 1160.56 1168.80 1180.76 1188.34 1200.31
 1209.09 1220.60 1224.15 1229.51 1234.66 1241.49 1252.95 1264.01 1275.48
 1287.74 1294.56 1306.43 1310.15 1321.53 1334.19 1347.68 1362.62 1375.61
 1377.02 1394.30 1405.47 1412.60 1422.59 1440.97 1446.81 1468.29 1484.19
 1500.04 1504.29 1520.03 1531.89 1541.34 1550.40 1568.86 1621.86 1635.68
 1694.13 1722.55 1745.86 1775.47 1815.40 1831.35 1842.51 1868.70 1902.88
 1948.39 1992.82 2026.50 2220.75 2228.97 2363.84 2485.77 2566.74 2591.22
 2828.44 2840.44 3108.99


--------------------------------------------------------------------------------
  K point     10 =   0.062500  0.187500  0.187500  Weight =    0.004
--------------------------------------------------------------------------------

  Frequencies (cm-1) [NB: Negative implies an imaginary mode]:

   64.74   91.97  116.10  154.60  176.57  199.81  219.42  229.71  231.41
  246.32  250.77  257.72  265.00  275.94  283.70  297.35  306.28  311.80
  321.21  326.99  336.87  348.11  351.60  360.30  369.28  374.57  383.28
  388.75  397.55  403.16  413.42  421.81  425.02  433.57  435.68  443.88
  450.39  461.79  465.32  475.03  479.14  483.18  493.50  502.39  512.24
  513.95  527.40  533.63  538.37  549.77  552.09  558.96  566.00  570.96
  580.91  584.32  597.06  603.18  612.07  617.28  623.72  630.25  635.84
  645.31  648.46  661.52  668.95  671.08  682.23  686.70  692.70  698.55
  706.95  715.08  722.47  730.06  738.80  745.38  753.02  757.17  764.63
  771.63  777.28  789.76  796.99  803.83  811.90  815.11  823.96  829.40
  838.18  846.23  855.41  863.02  867.11  879.67  887.48  900.46  904.85
  916.35  920.95  923.90  935.13  945.07  954.40  961.33  965.70  970.51
  975.08  979.36  991.17 1003.75 1009.88 1014.29 1022.02 1025.81 1033.98
 1049.87 1055.74 1064.91 1070.50 1080.36 1090.59 1094.02 1101.34 1109.15
 1122.55 1127.89 1131.38 1142.28 1161.58 1167.80 1180.98 1184.84 1202.29
 1208.88 1219.09 1223.80 1229.99 1235.41 1242.47 1254.30 1264.89 1274.18
 1286.23 1294.15 1306.39 1311.30 1320.84 1334.11 1350.91 1363.06 1374.32
 1377.23 1392.65 1404.25 1412.84 1423.63 1440.68 1446.96 1469.28 1484.17
 1501.41 1503.20 1518.63 1532.32 1541.39 1550.93 1568.83 1621.55 1635.69
 1694.09 1722.53 1745.76 1775.48 1815.40 1831.40 1842.57 1868.66 1902.88
 1948.59 1992.82 2026.34 2220.75 2228.97 2363.84 2485.77 2566.77 2591.22
 2828.44 2840.43 3108.99


--------------------------------------------------------------------------------
  K point     11 =   0.062500  0.187500  0.312500  Weight =    0.004
--------------------------------------------------------------------------------

  Frequencies (cm-1) [NB: Negative implies an imaginary mode]:

   91.41  111.45  125.61  176.73  182.06  192.06  212.02  224.74  231.81
  240.53  244.61  259.39  262.13  269.35  285.58  292.02  305.69  308.95
  321.40  324.69  339.13  350.03  354.52  359.37  372.48  374.71  385.07
  391.12  392.97  399.63  415.53  419.80  425.76  435.03  439.27  445.50
  453.93  463.93  468.63  476.41  480.33  486.08  496.03  498.54  511.01
  516.75  523.88  534.37  536.93  547.01  548.79  558.58  565.52  570.64
  577.02  581.72  593.46  604.82  608.67  616.61  623.73  629.03  635.12
  642.76  647.78  659.08  666.47  671.61  680.11  686.57  695.59  703.95
  708.32  714.77  722.95  733.84  738.04  741.76  751.51  759.69  766.19
  769.87  781.91  785.88  795.77  805.92  812.17  818.07  823.30  834.29
  837.16  846.92  855.51  861.30  864.70  876.23  886.71  901.12  907.02
  917.89  920.73  923.91  934.25  941.82  954.15  960.87  964.97  968.46
  976.01  979.90  993.37 1006.49 1008.68 1016.35 1023.14 1028.86 1034.93
 1052.50 1058.38 1063.83 1072.44 1080.93 1086.95 1096.73 1098.90 1106.00
 1120.42 1125.50 1133.28 1142.35 1162.14 1168.05 1176.71 1186.99 1202.84
 1209.04 1218.03 1222.99 1228.25 1236.54 1242.91 1254.36 1265.42 1272.37
 1284.92 1295.04 1306.67 1314.13 1320.39 1334.31 1354.18 1362.71 1373.61
 1376.97 1389.41 1403.21 1413.06 1425.65 1440.33 1447.15 1470.25 1483.90
 1501.13 1503.95 1516.88 1533.01 1541.25 1551.79 1568.76 1621.15 1635.72
 1694.05 1722.50 1745.63 1775.48 1815.39 1831.46 1842.60 1868.63 1902.88
 1948.88 1992.82 2026.11 2220.75 2228.97 2363.84 2485.77 2566.81 2591.22
 2828.44 2840.41 3108.99


--------------------------------------------------------------------------------
  K point     12 =   0.062500  0.187500  0.437500  Weight =    0.004
--------------------------------------------------------------------------------

  Frequencies (cm-1) [NB: Negative implies an imaginary mode]:

  105.12  123.90  146.70  170.80  189.02  190.81  205.09  222.46  228.94
  234.54  249.00  258.42  262.75  273.90  283.53  292.76  300.01  307.09
  314.34  326.87  335.56  344.47  354.81  358.75  376.00  376.78  384.53
  388.50  396.47  400.95  412.47  419.89  431.93  438.11  440.31  448.17
  457.82  463.97  468.02  478.00  481.87  490.07  493.53  498.97  507.27
  516.92  525.49  532.51  536.94  546.13  549.69  559.62  565.05  567.34
  574.41  583.80  590.94  599.09  607.45  616.29  621.37  625.40  638.55
  641.22  649.43  658.94  660.21  672.81  678.93  683.90  693.74  707.12
  711.44  717.46  723.34  733.45  738.88  744.64  752.48  759.27  762.98
  773.77  779.71  785.73  796.83  807.09  811.13  817.21  823.47  835.36
  841.41  846.58  853.07  862.58  866.63  875.31  887.96  899.98  908.24
  915.13  917.23  925.13  933.35  939.94  950.37  958.16  965.01  971.54
  976.20  982.76  996.04 1004.10 1008.55 1016.05 1025.37 1031.20 1041.02
 1053.47 1059.81 1063.76 1071.90 1080.46 1085.46 1093.68 1099.96 1105.11
 1119.69 1123.30 1133.36 1144.16 1162.78 1167.60 1175.27 1189.25 1202.13
 1208.83 1217.40 1223.11 1226.21 1235.80 1243.71 1253.11 1264.08 1272.41
 1284.65 1296.32 1306.77 1316.71 1321.32 1334.27 1354.68 1363.48 1373.65
 1375.50 1386.97 1403.05 1413.08 1427.23 1440.49 1447.02 1470.53 1483.68
 1499.99 1505.45 1515.70 1533.68 1540.94 1552.46 1568.69 1620.87 1635.74
 1694.01 1722.47 1745.54 1775.48 1815.39 1831.51 1842.57 1868.65 1902.88
 1949.08 1992.82 2025.95 2220.75 2228.97 2363.84 2485.77 2566.84 2591.22
 2828.44 2840.40 3108.99


--------------------------------------------------------------------------------
  K point     13 =   0.062500  0.187500  0.562500  Weight =    0.004
--------------------------------------------------------------------------------

  Frequencies (cm-1) [NB: Negative implies an imaginary mode]:

   98.82  139.20  152.74  163.18  181.27  193.88  209.55  218.97  223.33
  234.97  251.39  257.07  262.87  277.77  280.21  291.88  295.34  311.37
  316.77  327.36  333.20  344.07  356.43  359.18  368.59  378.19  384.62
  389.09  395.97  404.08  414.15  420.63  429.43  435.47  442.39  450.38
  454.18  464.61  466.08  479.13  486.32  490.85  494.38  501.29  510.47
  515.74  528.38  529.82  535.71  545.06  547.73  555.89  567.55  569.10
  579.46  585.34  592.21  596.89  604.65  611.33  622.10  624.64  636.59
  642.07  650.17  657.06  662.09  671.53  679.55  681.55  691.78  704.82
  715.58  716.40  726.58  735.80  738.06  743.68  755.56  757.82  762.82
  772.93  779.93  786.80  797.50  803.20  809.63  818.73  823.19  834.98
  843.80  848.42  852.46  860.92  869.66  879.02  892.55  896.28  908.04
  913.04  914.33  923.30  933.45  940.31  943.93  959.44  963.58  971.64
  977.82  987.51  997.17 1003.12 1006.94 1015.16 1025.10 1033.80 1043.77
 1050.51 1060.23 1063.96 1069.20 1080.57 1085.80 1093.15 1101.52 1106.67
 1119.34 1123.66 1132.00 1144.36 1163.35 1167.02 1178.24 1190.54 1201.38
 1207.19 1215.97 1224.16 1226.76 1233.91 1243.57 1251.86 1262.99 1271.98
 1286.12 1297.49 1306.90 1317.17 1323.36 1333.56 1352.91 1364.18 1372.71
 1374.85 1387.62 1403.60 1412.92 1427.28 1441.47 1446.56 1469.82 1483.77
 1498.98 1506.40 1515.74 1534.04 1540.70 1552.53 1568.67 1620.90 1635.74
 1694.01 1722.46 1745.55 1775.47 1815.39 1831.52 1842.51 1868.69 1902.88
 1949.09 1992.82 2025.95 2220.75 2228.97 2363.84 2485.77 2566.84 2591.22
 2828.44 2840.40 3108.99


--------------------------------------------------------------------------------
  K point     14 =   0.062500  0.187500  0.687500  Weight =    0.004
--------------------------------------------------------------------------------

  Frequencies (cm-1) [NB: Negative implies an imaginary mode]:

   88.83  112.91  152.27  164.52  180.08  197.50  203.02  219.34  234.25
  236.22  243.95  253.25  266.30  277.59  280.74  294.72  300.10  312.26
  321.47  327.14  337.66  346.31  353.06  359.87  364.90  372.97  379.63
  392.81  398.93  408.94  414.19  419.46  424.10  433.53  442.92  446.72
  453.76  459.70  469.05  475.00  481.51  494.99  499.25  506.81  510.83
  518.10  521.61  532.28  537.43  541.27  546.93  555.35  571.25  576.01
  579.21  588.71  592.25  602.13  604.50  611.78  623.51  625.97  632.27
  641.34  648.32  656.68  661.42  673.67  677.21  683.13  693.30  700.21
  714.13  721.42  725.85  734.78  739.85  741.69  753.05  757.48  766.13
  772.98  778.43  788.52  794.94  802.58  808.84  819.24  822.81  834.80
  841.97  847.52  855.98  861.45  871.82  880.52  891.60  899.18  905.77
  910.82  916.77  921.31  934.79  939.88  941.77  958.84  963.22  971.79
  980.47  988.24  997.29 1001.19 1006.29 1014.02 1022.84 1034.05 1043.42
 1046.69 1057.34 1064.18 1068.12 1082.54 1085.82 1095.21 1103.59 1108.00
 1120.72 1125.25 1130.84 1142.40 1163.12 1168.47 1180.74 1192.53 1200.66
 1204.90 1216.07 1224.06 1228.85 1233.13 1241.83 1251.24 1262.88 1271.57
 1287.97 1298.08 1307.41 1316.21 1323.68 1332.90 1351.14 1361.72 1373.43
 1375.82 1390.01 1404.50 1412.71 1426.05 1442.29 1446.24 1468.65 1483.97
 1498.33 1506.64 1516.98 1533.75 1540.76 1551.95 1568.71 1621.21 1635.72
 1694.05 1722.48 1745.65 1775.46 1815.40 1831.48 1842.44 1868.74 1902.88
 1948.89 1992.82 2026.11 2220.75 2228.97 2363.84 2485.77 2566.81 2591.22
 2828.44 2840.41 3108.99


--------------------------------------------------------------------------------
  K point     15 =   0.062500  0.187500  0.812500  Weight =    0.004
--------------------------------------------------------------------------------

  Frequencies (cm-1) [NB: Negative implies an imaginary mode]:

   75.30   81.33  129.38  162.93  172.95  195.80  208.80  223.79  237.04
  246.31  251.32  255.50  270.28  278.29  283.79  295.05  303.02  314.27
  320.99  326.75  332.27  341.22  354.62  361.20  366.07  371.68  376.24
  393.32  399.62  408.09  414.25  420.53  425.56  434.03  440.90  446.16
  451.50  460.44  468.37  471.86  476.96  486.20  495.77  506.66  512.88
  519.05  526.21  530.48  536.63  545.10  551.69  558.36  568.01  577.64
  585.98  592.06  594.95  601.84  605.41  614.66  626.83  629.30  632.61
  638.97  647.07  656.63  659.64  676.05  679.34  682.97  691.77  697.43
  713.01  722.65  725.89  732.11  738.57  741.94  752.05  759.65  764.62
  774.72  780.15  786.63  792.35  803.14  808.30  816.90  824.50  831.94
  840.03  850.52  857.09  860.12  874.31  881.77  889.80  896.53  905.95
  909.62  919.66  923.35  935.89  939.90  943.84  957.69  965.35  972.89
  981.52  985.35  995.69  998.59 1005.05 1013.15 1020.14 1033.29 1042.58
 1045.10 1053.77 1064.78 1068.08 1082.36 1086.88 1096.17 1103.71 1110.47
 1123.12 1126.09 1130.98 1141.55 1162.14 1170.48 1179.64 1194.86 1199.32
 1205.06 1218.81 1224.17 1227.72 1234.82 1239.89 1251.12 1263.27 1272.47
 1288.83 1297.77 1307.85 1313.93 1322.28 1333.53 1348.51 1360.68 1374.87
 1376.74 1392.50 1405.34 1412.60 1424.40 1441.96 1446.50 1467.82 1484.04
 1498.28 1506.27 1518.77 1532.92 1541.02 1551.08 1568.78 1621.62 1635.69
 1694.09 1722.52 1745.78 1775.45 1815.40 1831.41 1842.42 1868.76 1902.88
 1948.60 1992.82 2026.34 2220.75 2228.97 2363.84 2485.77 2566.77 2591.22
 2828.44 2840.43 3108.99


--------------------------------------------------------------------------------
  K point     16 =   0.062500  0.187500  0.937500  Weight =    0.004
--------------------------------------------------------------------------------

  Frequencies (cm-1) [NB: Negative implies an imaginary mode]:

   55.43   65.46  102.93  152.58  175.50  203.76  214.87  221.85  240.90
  247.33  256.13  265.11  270.35  280.18  288.25  290.12  306.10  315.85
  323.29  326.13  327.52  340.25  350.92  360.46  363.66  374.59  378.10
  391.78  400.16  407.17  412.90  420.83  429.99  434.82  438.33  444.41
  452.80  457.57  462.75  470.65  476.75  482.06  494.58  500.50  512.23
  520.53  526.42  533.40  538.62  549.44  553.94  558.23  570.32  575.76
  587.61  593.89  595.18  600.30  609.34  614.77  623.88  631.89  635.69
  644.23  650.48  654.64  663.55  675.67  680.97  681.78  690.76  697.00
  708.94  719.86  726.37  730.60  737.69  742.85  753.20  760.11  766.84
  774.07  775.00  789.70  792.29  801.11  809.57  815.49  826.33  831.00
  836.33  850.32  854.27  861.28  875.02  883.77  890.62  895.86  903.71
  909.01  920.37  925.41  935.16  941.82  949.14  960.03  966.67  973.63
  978.97  982.93  993.60  996.07 1005.41 1011.85 1019.91 1030.72 1042.54
 1044.30 1051.71 1065.23 1068.48 1081.33 1088.66 1095.68 1103.39 1111.04
 1123.34 1127.45 1132.28 1142.59 1160.78 1170.42 1179.36 1193.01 1198.74
 1207.85 1221.54 1224.02 1227.30 1235.22 1239.90 1251.69 1263.63 1274.36
 1288.66 1296.39 1307.37 1311.10 1321.76 1334.28 1346.57 1361.55 1375.96
 1376.87 1394.12 1405.80 1412.57 1423.02 1441.31 1446.75 1467.72 1484.09
 1498.87 1505.44 1520.10 1532.09 1541.22 1550.46 1568.84 1621.88 1635.68
 1694.13 1722.55 1745.87 1775.46 1815.40 1831.36 1842.44 1868.75 1902.88
 1948.39 1992.82 2026.50 2220.75 2228.97 2363.84 2485.77 2566.74 2591.22
 2828.44 2840.44 3108.99


--------------------------------------------------------------------------------
  K point     17 =   0.062500  0.312500  0.062500  Weight =    0.004
--------------------------------------------------------------------------------

  Frequencies (cm-1) [NB: Negative implies an imaginary mode]:

   88.37   96.70  135.59  159.71  171.95  198.72  208.89  225.14  234.67
  246.93  251.33  259.37  267.64  272.88  283.64  295.98  300.80  315.47
  318.50  327.93  330.72  340.35  352.49  359.19  364.56  369.04  379.47
  385.37  398.62  407.56  415.58  419.97  427.54  431.38  436.53  443.08
  449.15  460.77  465.45  469.15  478.27  485.45  489.11  506.53  514.48
  517.45  526.91  535.45  538.81  549.76  555.33  558.92  569.83  577.67
  580.98  586.33  592.57  600.43  614.16  621.02  627.87  635.67  636.25
  645.71  650.95  661.30  668.31  677.75  684.59  686.77  690.57  697.65
  701.42  718.76  719.37  728.19  734.72  739.93  751.94  759.25  764.86
  772.95  781.08  785.52  794.12  799.78  808.02  817.97  827.38  831.13
  836.19  850.60  854.64  863.04  872.03  883.00  889.58  898.21  904.00
  910.02  914.90  928.38  933.23  944.05  956.04  962.35  967.28  969.72
  976.35  982.58  988.03  997.92 1009.63 1011.86 1021.33 1025.65 1038.12
 1047.42 1057.09 1065.79 1070.93 1079.92 1090.19 1093.88 1101.78 1108.86
 1123.07 1124.65 1132.19 1143.27 1163.49 1173.83 1181.05 1186.08 1197.25
 1209.93 1218.57 1224.81 1228.84 1234.94 1239.86 1253.27 1262.98 1277.71
 1287.23 1295.89 1307.80 1310.82 1321.62 1334.58 1348.56 1357.57 1375.22
 1375.77 1396.94 1404.75 1415.07 1423.26 1439.20 1447.81 1468.08 1483.74
 1501.31 1503.06 1520.12 1531.61 1541.47 1550.57 1568.85 1621.76 1635.66
 1694.15 1722.58 1745.82 1775.49 1815.39 1831.32 1842.56 1868.66 1902.88
 1948.39 1992.82 2026.50 2220.75 2228.97 2363.84 2485.76 2566.74 2591.22
 2828.44 2840.44 3108.99


--------------------------------------------------------------------------------
  K point     18 =   0.062500  0.312500  0.187500  Weight =    0.004
--------------------------------------------------------------------------------

  Frequencies (cm-1) [NB: Negative implies an imaginary mode]:

   88.63  114.94  130.57  164.38  185.25  194.42  208.20  226.13  231.73
  246.73  249.31  256.10  264.57  270.59  277.63  291.07  302.28  316.13
  321.93  327.59  334.27  343.36  355.90  361.05  367.84  374.10  378.39
  384.66  396.28  405.95  416.75  418.48  423.57  430.62  436.23  446.32
  451.90  460.35  467.49  472.80  477.85  486.91  493.20  503.66  512.38
  518.27  526.90  533.46  538.37  546.90  551.94  556.76  566.66  575.13
  580.62  585.37  593.87  604.85  613.25  617.54  627.83  632.50  635.29
  643.09  650.13  663.12  670.62  675.25  681.99  685.80  693.05  699.36
  706.02  715.32  721.11  728.60  734.78  741.84  750.70  757.29  766.23
  773.32  780.03  783.35  794.33  803.55  812.07  818.89  828.10  829.89
  836.76  849.94  855.45  859.63  867.71  880.78  888.30  900.41  907.13
  915.04  915.93  925.09  933.83  946.16  954.94  960.81  964.62  970.25
  974.42  980.40  988.01 1005.94 1011.24 1013.16 1020.90 1025.09 1036.81
 1050.14 1059.92 1065.12 1070.94 1078.88 1088.83 1095.24 1100.53 1109.03
 1120.43 1124.78 1132.23 1140.99 1165.33 1171.64 1178.20 1186.41 1199.67
 1209.99 1217.55 1224.52 1229.93 1235.78 1240.41 1254.13 1263.27 1278.26
 1285.60 1294.37 1306.50 1311.22 1321.58 1334.43 1352.04 1359.09 1373.85
 1375.79 1394.99 1403.70 1415.12 1424.53 1439.08 1448.01 1468.70 1483.77
 1500.99 1503.55 1518.75 1532.15 1541.53 1551.08 1568.81 1621.48 1635.68
 1694.12 1722.56 1745.73 1775.49 1815.39 1831.37 1842.59 1868.64 1902.88
 1948.59 1992.82 2026.34 2220.75 2228.97 2363.84 2485.76 2566.77 2591.22
 2828.44 2840.43 3108.99


--------------------------------------------------------------------------------
  K point     19 =   0.062500  0.312500  0.312500  Weight =    0.004
--------------------------------------------------------------------------------

  Frequencies (cm-1) [NB: Negative implies an imaginary mode]:

  101.16  117.60  142.90  166.67  190.56  195.06  207.52  221.77  234.59
  238.38  247.86  256.28  263.47  269.59  276.21  285.76  301.61  313.98
  320.64  329.10  334.88  346.72  356.81  361.88  370.17  376.87  385.05
  387.68  393.21  401.71  414.54  418.80  426.16  430.67  439.83  444.89
  455.99  462.31  469.00  477.78  481.05  487.61  496.72  498.64  511.78
  515.56  525.46  529.96  538.22  543.07  552.78  557.11  565.48  569.45
  580.96  583.72  593.01  604.56  610.11  615.34  623.63  628.89  637.09
  643.65  647.60  662.24  664.86  674.16  680.04  684.14  695.05  707.03
  710.09  714.16  720.14  730.24  736.95  743.42  752.31  757.37  767.70
  769.61  776.71  785.72  794.27  805.09  814.73  822.99  826.37  831.07
  838.58  847.36  855.81  858.88  864.27  879.21  889.28  902.64  908.12
  914.47  918.70  924.55  934.43  941.32  953.23  957.50  963.12  970.47
  974.01  979.73  990.75 1008.08 1013.26 1017.23 1019.42 1030.07 1038.67
 1053.21 1061.60 1063.80 1070.62 1077.94 1085.84 1096.26 1100.76 1107.12
 1118.45 1123.36 1133.01 1140.02 1165.23 1170.35 1175.00 1188.98 1201.16
 1210.10 1216.81 1224.93 1227.88 1237.02 1240.67 1254.50 1263.52 1277.78
 1282.79 1294.67 1306.26 1312.62 1321.65 1334.83 1354.83 1361.02 1372.59
 1375.73 1390.81 1403.25 1415.20 1426.46 1439.26 1448.17 1469.07 1483.59
 1499.52 1505.40 1517.03 1533.06 1541.33 1551.90 1568.74 1621.11 1635.70
 1694.07 1722.53 1745.60 1775.48 1815.39 1831.44 1842.56 1868.66 1902.88
 1948.88 1992.82 2026.11 2220.75 2228.97 2363.84 2485.76 2566.81 2591.22
 2828.44 2840.41 3108.99


--------------------------------------------------------------------------------
  K point     20 =   0.062500  0.312500  0.437500  Weight =    0.004
--------------------------------------------------------------------------------

  Frequencies (cm-1) [NB: Negative implies an imaginary mode]:

  111.70  121.83  159.19  167.97  184.47  189.22  201.34  219.64  230.36
  240.39  247.59  256.06  266.74  272.39  278.92  290.33  301.32  308.93
  320.00  327.12  330.15  343.22  355.05  362.58  370.43  379.45  384.72
  392.30  397.67  402.60  409.62  420.15  429.44  434.79  441.12  448.28
  457.35  462.80  469.09  478.69  484.68  489.25  495.26  499.07  503.64
  512.95  527.01  532.13  539.81  542.74  552.06  560.24  562.76  564.18
  578.05  586.92  591.32  597.89  608.22  613.97  620.94  626.47  639.36
  644.94  648.14  658.38  660.37  672.30  680.67  685.49  691.87  706.49
  711.14  716.92  724.83  731.42  735.08  748.61  755.96  758.81  761.21
  771.93  776.13  785.78  797.99  802.66  813.67  819.15  826.60  833.90
  842.68  847.00  854.10  860.89  864.82  880.18  891.42  903.42  907.93
  911.33  917.68  925.59  933.60  936.10  947.96  956.75  961.55  971.68
  974.98  982.34  992.49 1007.67 1012.55 1017.28 1024.60 1034.24 1042.61
 1054.54 1061.81 1063.95 1068.20 1077.31 1083.33 1094.69 1102.10 1106.06
 1118.13 1123.26 1131.05 1142.37 1164.06 1168.59 1174.86 1191.72 1201.18
 1209.21 1217.76 1224.70 1226.23 1235.36 1241.97 1253.98 1262.91 1276.25
 1282.30 1296.00 1306.51 1314.24 1322.17 1335.11 1354.83 1363.40 1372.72
 1374.74 1387.11 1403.57 1415.18 1427.59 1440.17 1447.95 1468.85 1483.43
 1498.47 1506.77 1515.89 1533.97 1540.89 1552.55 1568.68 1620.85 1635.72
 1694.03 1722.49 1745.53 1775.47 1815.39 1831.49 1842.50 1868.70 1902.88
 1949.08 1992.82 2025.95 2220.75 2228.97 2363.84 2485.76 2566.84 2591.22
 2828.44 2840.40 3108.99


--------------------------------------------------------------------------------
  K point     21 =   0.062500  0.312500  0.562500  Weight =    0.004
--------------------------------------------------------------------------------

  Frequencies (cm-1) [NB: Negative implies an imaginary mode]:

  109.42  133.12  157.69  169.95  178.97  186.04  203.68  218.97  229.34
  236.46  246.58  257.65  266.94  273.23  281.06  291.97  301.21  310.84
  320.42  322.52  327.88  340.71  355.06  362.95  372.53  375.26  383.20
  394.84  397.81  406.49  411.74  421.88  428.72  437.71  442.17  444.91
  455.12  461.01  469.07  479.56  481.78  491.66  495.36  501.51  505.38
  514.95  526.52  533.95  540.21  543.32  546.73  557.08  566.01  567.78
  577.90  587.96  589.56  597.15  609.68  611.14  622.23  626.15  634.85
  645.04  650.53  657.16  661.89  669.30  680.70  684.76  693.03  701.73
  709.10  717.06  727.67  734.41  739.47  744.61  754.22  758.54  763.62
  771.09  779.54  788.06  797.46  802.95  809.86  817.40  826.87  833.28
  843.52  849.50  853.29  861.33  867.89  884.03  895.02  900.79  905.97
  909.27  916.54  921.46  934.46  935.71  942.24  957.52  961.57  971.07
  976.90  986.80  992.53 1006.50 1011.23 1017.69 1025.04 1036.64 1044.58
 1052.63 1060.97 1064.48 1065.67 1077.91 1082.45 1095.07 1102.20 1107.74
 1118.74 1124.50 1129.19 1142.83 1163.48 1167.84 1178.06 1193.73 1200.28
 1207.08 1216.79 1224.38 1228.48 1232.66 1241.90 1252.97 1262.13 1274.28
 1284.62 1297.37 1306.96 1315.54 1322.90 1334.66 1352.98 1363.91 1372.10
 1374.39 1387.32 1404.26 1415.09 1427.38 1441.30 1447.54 1468.12 1483.40
 1497.91 1507.37 1515.93 1534.37 1540.59 1552.60 1568.67 1620.88 1635.72
 1694.04 1722.48 1745.54 1775.46 1815.39 1831.50 1842.43 1868.74 1902.88
 1949.09 1992.82 2025.95 2220.75 2228.97 2363.84 2485.76 2566.84 2591.22
 2828.44 2840.40 3108.99


--------------------------------------------------------------------------------
  K point     22 =   0.062500  0.312500  0.687500  Weight =    0.004
--------------------------------------------------------------------------------

  Frequencies (cm-1) [NB: Negative implies an imaginary mode]:

  105.38  120.86  151.41  170.05  182.73  188.96  205.91  223.84  233.19
  238.36  243.06  250.15  261.81  275.26  280.39  296.60  299.09  311.91
  316.54  321.95  333.88  342.90  353.94  363.71  369.14  372.01  381.85
  392.12  397.89  407.46  417.18  423.52  426.33  433.28  441.36  445.93
  450.69  461.98  466.90  473.99  481.12  490.92  495.96  507.44  514.45
  516.21  521.65  532.72  537.74  542.09  547.61  559.79  567.91  573.17
  579.31  590.55  592.04  598.47  610.20  615.33  622.88  626.53  631.56
  643.77  649.60  659.02  662.25  672.08  676.71  685.76  696.10  698.55
  706.49  716.53  726.83  734.86  737.34  745.45  751.86  757.48  764.75
  774.31  778.15  790.12  796.38  801.46  810.05  819.14  825.48  833.43
  842.16  847.94  853.32  863.07  871.06  885.50  895.46  897.40  904.00
  910.24  915.24  921.88  932.76  936.17  944.14  956.81  962.46  972.26
  979.14  987.36  992.78 1002.24 1010.49 1016.34 1023.63 1035.57 1044.08
 1049.03 1059.94 1063.15 1066.39 1079.18 1084.03 1096.96 1101.68 1109.88
 1120.88 1124.56 1129.88 1140.48 1163.56 1169.76 1181.61 1195.36 1199.11
 1203.60 1215.66 1225.35 1229.03 1232.88 1240.15 1252.04 1262.06 1273.61
 1286.84 1298.25 1307.76 1316.13 1323.01 1333.80 1351.20 1359.91 1372.59
 1375.61 1390.39 1404.91 1415.06 1426.26 1441.31 1447.55 1467.47 1483.37
 1497.88 1507.16 1517.13 1533.87 1540.76 1552.04 1568.71 1621.17 1635.70
 1694.07 1722.50 1745.63 1775.46 1815.39 1831.46 1842.41 1868.76 1902.88
 1948.88 1992.82 2026.11 2220.75 2228.97 2363.84 2485.76 2566.81 2591.22
 2828.44 2840.41 3108.99


--------------------------------------------------------------------------------
  K point     23 =   0.062500  0.312500  0.812500  Weight =    0.004
--------------------------------------------------------------------------------

  Frequencies (cm-1) [NB: Negative implies an imaginary mode]:

   91.95  108.29  149.93  164.94  177.27  189.65  212.61  221.10  236.24
  240.03  246.58  257.93  261.27  274.02  284.46  294.12  303.52  308.54
  317.55  320.94  332.45  339.17  356.25  361.01  366.84  370.50  381.61
  390.54  399.40  406.47  415.82  421.33  428.55  430.52  439.01  445.61
  454.53  459.08  465.96  471.25  479.58  486.78  495.12  503.39  511.71
  520.83  527.02  529.95  537.26  546.30  554.08  562.46  568.78  575.13
  582.32  589.61  595.65  601.93  608.81  615.42  627.28  629.64  634.77
  642.28  649.20  656.20  665.43  675.20  678.21  685.23  693.34  698.90
  708.47  716.84  723.84  729.01  734.28  746.80  750.69  759.43  764.10
  776.49  778.50  790.91  791.97  800.23  807.94  820.63  825.86  832.38
  840.88  847.25  855.71  862.20  874.63  884.77  892.46  896.10  902.98
  908.45  914.83  924.55  935.96  939.47  945.29  956.72  965.09  973.88
  981.54  984.47  991.93  997.10 1007.93 1013.99 1022.57 1033.28 1042.01
 1046.85 1057.77 1064.49 1067.74 1079.80 1086.34 1096.94 1101.19 1111.76
 1123.10 1123.75 1131.30 1140.18 1163.48 1173.11 1181.87 1194.02 1197.38
 1204.41 1216.69 1225.76 1227.28 1235.17 1238.43 1251.76 1262.42 1274.51
 1287.75 1298.29 1308.69 1315.44 1321.94 1334.06 1348.88 1356.70 1373.97
 1376.38 1393.93 1405.29 1415.14 1424.79 1440.33 1447.81 1467.28 1483.37
 1498.47 1506.25 1518.87 1532.79 1541.10 1551.21 1568.78 1621.55 1635.68
 1694.12 1722.54 1745.76 1775.47 1815.40 1831.38 1842.43 1868.75 1902.88
 1948.60 1992.82 2026.34 2220.75 2228.97 2363.84 2485.76 2566.77 2591.22
 2828.44 2840.43 3108.99


--------------------------------------------------------------------------------
  K point     24 =   0.062500  0.312500  0.937500  Weight =    0.004
--------------------------------------------------------------------------------

  Frequencies (cm-1) [NB: Negative implies an imaginary mode]:

   84.41   98.97  143.71  159.61  168.71  196.49  211.92  219.61  239.35
  246.35  248.24  261.76  270.38  271.79  283.56  291.75  307.67  311.35
  318.22  322.00  327.12  339.79  353.33  359.05  364.56  368.90  382.13
  389.08  399.88  406.07  416.66  418.49  428.45  432.63  435.20  444.07
  451.91  461.41  463.79  470.35  476.66  486.25  492.18  501.39  512.37
  519.83  529.30  533.25  538.67  549.92  555.96  562.99  570.89  574.74
  584.81  587.85  591.84  601.89  610.18  618.56  629.82  632.77  636.93
  645.97  651.08  655.27  668.33  677.96  678.84  686.47  691.38  697.99
  707.96  717.39  721.78  723.85  736.08  743.34  750.95  759.27  764.80
  775.68  780.17  789.40  791.83  797.04  806.72  819.19  828.92  830.18
  837.95  849.53  855.17  863.40  874.94  884.37  891.56  897.20  900.66
  907.13  915.02  927.30  936.16  942.03  949.40  960.34  967.62  973.91
  979.05  982.66  990.16  995.07 1006.54 1012.46 1021.95 1029.34 1040.08
 1047.02 1055.57 1065.86 1069.54 1080.35 1088.64 1094.96 1101.76 1110.77
 1122.45 1124.91 1132.39 1142.71 1162.86 1175.05 1181.24 1189.55 1196.11
 1208.42 1218.37 1225.72 1226.52 1235.42 1238.67 1252.35 1262.77 1276.22
 1287.70 1297.50 1308.98 1312.72 1321.48 1334.85 1346.99 1356.53 1374.97
 1376.38 1396.40 1405.33 1415.14 1423.50 1439.51 1447.82 1467.54 1483.53
 1499.67 1504.78 1520.17 1531.83 1541.32 1550.62 1568.83 1621.79 1635.66
 1694.15 1722.57 1745.84 1775.48 1815.39 1831.33 1842.50 1868.71 1902.88
 1948.40 1992.82 2026.50 2220.75 2228.97 2363.84 2485.76 2566.74 2591.22
 2828.44 2840.44 3108.99


--------------------------------------------------------------------------------
  K point     25 =   0.062500  0.437500  0.062500  Weight =    0.004
--------------------------------------------------------------------------------

  Frequencies (cm-1) [NB: Negative implies an imaginary mode]:

  116.07  123.13  138.97  157.14  174.85  201.63  207.20  224.56  231.75
  244.65  249.50  255.59  265.15  269.64  282.81  288.64  296.66  311.48
  320.02  327.52  330.57  340.60  351.88  356.85  365.76  370.75  378.01
  385.58  399.15  408.66  413.25  417.07  424.78  430.28  433.75  440.91
  453.16  457.51  466.87  473.68  478.85  484.46  492.84  508.79  512.88
  522.00  527.37  536.32  538.51  547.68  554.84  561.44  571.34  578.02
  584.09  586.94  590.59  598.68  608.58  622.54  630.39  636.48  639.11
  650.11  651.68  659.79  669.25  676.12  681.19  687.43  694.30  695.75
  703.76  713.97  718.09  728.81  733.42  736.78  752.43  757.66  765.80
  772.63  782.65  788.17  793.62  799.11  803.89  818.33  829.87  835.00
  837.70  847.62  856.60  863.82  870.54  882.54  888.22  898.75  905.99
  907.72  915.39  927.93  931.52  944.12  957.66  960.76  965.09  971.31
  977.47  982.33  986.97  996.99 1009.89 1012.82 1021.19 1027.20 1036.60
 1046.74 1059.68 1067.29 1072.64 1079.55 1089.04 1092.74 1101.85 1108.52
 1121.02 1123.32 1132.60 1143.57 1167.23 1175.66 1180.58 1187.99 1193.31
 1210.12 1214.95 1226.04 1228.31 1234.96 1239.60 1253.23 1262.65 1277.01
 1287.36 1297.63 1310.46 1311.41 1321.42 1335.08 1347.88 1354.32 1374.71
 1375.49 1398.04 1404.22 1416.87 1424.16 1438.10 1448.39 1467.65 1483.47
 1501.40 1502.92 1520.19 1531.48 1541.56 1550.68 1568.83 1621.71 1635.64
 1694.17 1722.61 1745.80 1775.50 1815.38 1831.30 1842.59 1868.65 1902.89
 1948.39 1992.82 2026.50 2220.76 2228.97 2363.84 2485.76 2566.74 2591.22
 2828.44 2840.44 3108.99


--------------------------------------------------------------------------------
  K point     26 =   0.062500  0.437500  0.187500  Weight =    0.004
--------------------------------------------------------------------------------

  Frequencies (cm-1) [NB: Negative implies an imaginary mode]:

  115.27  121.39  147.02  158.72  172.98  198.32  210.65  226.99  231.98
  243.89  250.08  253.47  262.77  269.86  277.65  286.51  296.33  313.41
  321.11  328.65  334.44  340.22  354.38  361.60  368.49  371.68  380.01
  383.09  399.28  407.70  414.00  417.03  421.65  428.96  434.60  442.44
  456.10  460.35  467.96  474.51  480.91  488.33  495.82  503.60  515.65
  517.89  523.54  532.42  542.04  547.27  551.24  559.69  566.33  575.60
  584.27  588.45  592.43  600.92  609.85  617.74  626.32  633.11  637.44
  647.49  651.82  661.71  670.67  673.83  679.88  686.16  690.57  702.50
  703.52  714.12  720.48  725.69  735.91  738.96  752.14  758.53  767.13
  771.66  778.77  786.49  793.35  802.81  809.79  822.39  828.56  834.48
  836.72  848.42  855.47  859.71  868.79  882.71  889.62  899.30  907.93
  911.79  916.22  922.88  933.12  946.18  955.82  957.44  964.23  972.17
  974.54  979.82  986.97 1003.83 1009.19 1015.26 1022.22 1027.75 1038.03
[...]
--------------------------------------------------------------------------------
  Zero point energy            =       11.560451 eV
  Entropy                      =        0.000224 eV/K
                               =       21.653288 J/(mol.K)
  Helmholtz free-energy        =     -410.253806 eV
                               =   -39583.217476 kJmol-1
  Free energy (equipartition)  =     -418.273643 eV
  - T*S       (equipartition)  =        2.212374 eV
  Uvib        (equipartition)  =        1.323623 eV
  Mean kinetic energy          =        5.786894 eV
  Heat capacity - const volume =        0.000598 eV/K
                               =       57.662843 J/(mol.K)
--------------------------------------------------------------------------------
  Phonon properties (per mole of unit cells): Temperature =     90.000 K
--------------------------------------------------------------------------------
  Zero point energy            =       11.560451 eV
  Entropy                      =        0.000305 eV/K
                               =       29.438568 J/(mol.K)
  Helmholtz free-energy        =     -410.256443 eV
                               =   -39583.471983 kJmol-1
  Free energy (equipartition)  =     -418.007031 eV
  - T*S       (equipartition)  =        2.313533 eV
  Uvib        (equipartition)  =        1.489076 eV
  Mean kinetic energy          =        5.790328 eV
  Heat capacity - const volume =        0.000779 eV/K
                               =       75.151223 J/(mol.K)
--------------------------------------------------------------------------------
  Phonon properties (per mole of unit cells): Temperature =    100.000 K
--------------------------------------------------------------------------------
  Zero point energy            =       11.560451 eV
  Entropy                      =        0.000397 eV/K
                               =       38.327316 J/(mol.K)
  Helmholtz free-energy        =     -410.259946 eV
                               =   -39583.809926 kJmol-1
  Free energy (equipartition)  =     -417.758841 eV
  - T*S       (equipartition)  =        2.396270 eV
  Uvib        (equipartition)  =        1.654529 eV
  Mean kinetic energy          =        5.794709 eV
  Heat capacity - const volume =        0.000976 eV/K
                               =       94.139034 J/(mol.K)
--------------------------------------------------------------------------------
  Phonon properties (per mole of unit cells): Temperature =    110.000 K
--------------------------------------------------------------------------------
  Zero point energy            =       11.560451 eV
  Entropy                      =        0.000500 eV/K
                               =       48.239299 J/(mol.K)
  Helmholtz free-energy        =     -410.264424 eV
                               =   -39584.241941 kJmol-1
  Free energy (equipartition)  =     -417.527223 eV
  - T*S       (equipartition)  =        2.462435 eV
  Uvib        (equipartition)  =        1.819981 eV
  Mean kinetic energy          =        5.800106 eV
  Heat capacity - const volume =        0.001185 eV/K
                               =      114.362244 J/(mol.K)
--------------------------------------------------------------------------------
  Phonon properties (per mole of unit cells): Temperature =    120.000 K
--------------------------------------------------------------------------------
  Zero point energy            =       11.560451 eV
  Entropy                      =        0.000612 eV/K
                               =       59.093842 J/(mol.K)
  Helmholtz free-energy        =     -410.269978 eV
                               =   -39584.777854 kJmol-1
  Free energy (equipartition)  =     -417.310668 eV
  - T*S       (equipartition)  =        2.513537 eV
  Uvib        (equipartition)  =        1.985434 eV
  Mean kinetic energy          =        5.806579 eV
  Heat capacity - const volume =        0.001405 eV/K
                               =      135.593685 J/(mol.K)
--------------------------------------------------------------------------------
  Phonon properties (per mole of unit cells): Temperature =    130.000 K
--------------------------------------------------------------------------------
  Zero point energy            =       11.560451 eV
  Entropy                      =        0.000734 eV/K
                               =       70.812825 J/(mol.K)
  Helmholtz free-energy        =     -410.276703 eV
                               =   -39585.426698 kJmol-1
  Free energy (equipartition)  =     -417.107917 eV
  - T*S       (equipartition)  =        2.550836 eV
  Uvib        (equipartition)  =        2.150887 eV
  Mean kinetic energy          =        5.814174 eV
  Heat capacity - const volume =        0.001634 eV/K
                               =      157.639949 J/(mol.K)
--------------------------------------------------------------------------------
  Phonon properties (per mole of unit cells): Temperature =    140.000 K
--------------------------------------------------------------------------------
  Zero point energy            =       11.560451 eV
  Entropy                      =        0.000864 eV/K
                               =       83.322268 J/(mol.K)
  Helmholtz free-energy        =     -410.284684 eV
                               =   -39586.196745 kJmol-1
  Free energy (equipartition)  =     -416.917905 eV
  - T*S       (equipartition)  =        2.575394 eV
  Uvib        (equipartition)  =        2.316340 eV
  Mean kinetic energy          =        5.822928 eV
  Heat capacity - const volume =        0.001869 eV/K
                               =      180.337030 J/(mol.K)
--------------------------------------------------------------------------------
  Phonon properties (per mole of unit cells): Temperature =    150.000 K
--------------------------------------------------------------------------------
  Zero point energy            =       11.560451 eV
  Entropy                      =        0.001001 eV/K
                               =       96.553068 J/(mol.K)
  Helmholtz free-energy        =     -410.293999 eV
                               =   -39587.095548 kJmol-1
  Free energy (equipartition)  =     -416.739722 eV
  - T*S       (equipartition)  =        2.588125 eV
  Uvib        (equipartition)  =        2.481793 eV
  Mean kinetic energy          =        5.832873 eV
  Heat capacity - const volume =        0.002110 eV/K
                               =      203.545734 J/(mol.K)
--------------------------------------------------------------------------------
  Phonon properties (per mole of unit cells): Temperature =    160.000 K
--------------------------------------------------------------------------------
  Zero point energy            =       11.560451 eV
  Entropy                      =        0.001145 eV/K
                               =      110.441200 J/(mol.K)
  Helmholtz free-energy        =     -410.304721 eV
                               =   -39588.129997 kJmol-1
  Free energy (equipartition)  =     -416.572576 eV
  - T*S       (equipartition)  =        2.589818 eV
  Uvib        (equipartition)  =        2.647246 eV
  Mean kinetic energy          =        5.844031 eV
  Heat capacity - const volume =        0.002354 eV/K
                               =      227.147346 J/(mol.K)
--------------------------------------------------------------------------------
  Phonon properties (per mole of unit cells): Temperature =    170.000 K
--------------------------------------------------------------------------------
  Zero point energy            =       11.560451 eV
  Entropy                      =        0.001295 eV/K
                               =      124.927606 J/(mol.K)
  Helmholtz free-energy        =     -410.316913 eV
                               =   -39589.306365 kJmol-1
  Free energy (equipartition)  =     -416.415779 eV
  - T*S       (equipartition)  =        2.581162 eV
  Uvib        (equipartition)  =        2.812699 eV
  Mean kinetic energy          =        5.856421 eV
  Heat capacity - const volume =        0.002602 eV/K
                               =      251.039842 J/(mol.K)
--------------------------------------------------------------------------------
  Phonon properties (per mole of unit cells): Temperature =    180.000 K
--------------------------------------------------------------------------------
  Zero point energy            =       11.560451 eV
  Entropy                      =        0.001451 eV/K
                               =      139.957927 J/(mol.K)
  Helmholtz free-energy        =     -410.330635 eV
                               =   -39590.630361 kJmol-1
  Free energy (equipartition)  =     -416.268719 eV
  - T*S       (equipartition)  =        2.562769 eV
  Uvib        (equipartition)  =        2.978151 eV
  Mean kinetic energy          =        5.870054 eV
  Heat capacity - const volume =        0.002852 eV/K
                               =      275.134724 J/(mol.K)
--------------------------------------------------------------------------------
  Phonon properties (per mole of unit cells): Temperature =    190.000 K
--------------------------------------------------------------------------------
  Zero point energy            =       11.560451 eV
  Entropy                      =        0.001611 eV/K
                               =      155.482143 J/(mol.K)
  Helmholtz free-energy        =     -410.345941 eV
                               =   -39592.107170 kJmol-1
  Free energy (equipartition)  =     -416.130856 eV
  - T*S       (equipartition)  =        2.535179 eV
  Uvib        (equipartition)  =        3.143604 eV
  Mean kinetic energy          =        5.884939 eV
  Heat capacity - const volume =        0.003103 eV/K
                               =      299.354477 J/(mol.K)
--------------------------------------------------------------------------------
  Phonon properties (per mole of unit cells): Temperature =    200.000 K
--------------------------------------------------------------------------------
  Zero point energy            =       11.560451 eV
  Entropy                      =        0.001777 eV/K
                               =      171.454194 J/(mol.K)
  Helmholtz free-energy        =     -410.362880 eV
                               =   -39593.741497 kJmol-1
  Free energy (equipartition)  =     -416.001705 eV
  - T*S       (equipartition)  =        2.498877 eV
  Uvib        (equipartition)  =        3.309057 eV
  Mean kinetic energy          =        5.901081 eV
  Heat capacity - const volume =        0.003354 eV/K
                               =      323.630584 J/(mol.K)
--------------------------------------------------------------------------------
  Phonon properties (per mole of unit cells): Temperature =    210.000 K
--------------------------------------------------------------------------------
  Zero point energy            =       11.560451 eV
  Entropy                      =        0.001947 eV/K
                               =      187.831606 J/(mol.K)
  Helmholtz free-energy        =     -410.381496 eV
                               =   -39595.537605 kJmol-1
  Free energy (equipartition)  =     -415.880831 eV
  - T*S       (equipartition)  =        2.454299 eV
  Uvib        (equipartition)  =        3.474510 eV
  Mean kinetic energy          =        5.918481 eV
  Heat capacity - const volume =        0.003606 eV/K
                               =      347.902016 J/(mol.K)
--------------------------------------------------------------------------------
  Phonon properties (per mole of unit cells): Temperature =    220.000 K
--------------------------------------------------------------------------------
  Zero point energy            =       11.560451 eV
  Entropy                      =        0.002120 eV/K
                               =      204.575149 J/(mol.K)
  Helmholtz free-energy        =     -410.401828 eV
                               =   -39597.499349 kJmol-1
  Free energy (equipartition)  =     -415.767837 eV
  - T*S       (equipartition)  =        2.401839 eV
  Uvib        (equipartition)  =        3.639963 eV
  Mean kinetic energy          =        5.937137 eV
  Heat capacity - const volume =        0.003857 eV/K
                               =      372.114110 J/(mol.K)
--------------------------------------------------------------------------------
  Phonon properties (per mole of unit cells): Temperature =    230.000 K
--------------------------------------------------------------------------------
  Zero point energy            =       11.560451 eV
  Entropy                      =        0.002297 eV/K
                               =      221.648519 J/(mol.K)
  Helmholtz free-energy        =     -410.423913 eV
                               =   -39599.630207 kJmol-1
  Free energy (equipartition)  =     -415.662367 eV
  - T*S       (equipartition)  =        2.341856 eV
  Uvib        (equipartition)  =        3.805416 eV
  Mean kinetic energy          =        5.957046 eV
  Heat capacity - const volume =        0.004107 eV/K
                               =      396.217725 J/(mol.K)
--------------------------------------------------------------------------------
  Phonon properties (per mole of unit cells): Temperature =    240.000 K
--------------------------------------------------------------------------------
  Zero point energy            =       11.560451 eV
  Entropy                      =        0.002477 eV/K
                               =      239.018063 J/(mol.K)
  Helmholtz free-energy        =     -410.447783 eV
                               =   -39601.933306 kJmol-1
  Free energy (equipartition)  =     -415.564093 eV
  - T*S       (equipartition)  =        2.274678 eV
  Uvib        (equipartition)  =        3.970868 eV
  Mean kinetic energy          =        5.978200 eV
  Heat capacity - const volume =        0.004355 eV/K
                               =      420.168635 J/(mol.K)
--------------------------------------------------------------------------------
  Phonon properties (per mole of unit cells): Temperature =    250.000 K
--------------------------------------------------------------------------------
  Zero point energy            =       11.560451 eV
  Entropy                      =        0.002660 eV/K
                               =      256.652537 J/(mol.K)
  Helmholtz free-energy        =     -410.473467 eV
                               =   -39604.411451 kJmol-1
  Free energy (equipartition)  =     -415.472715 eV
  - T*S       (equipartition)  =        2.200603 eV
  Uvib        (equipartition)  =        4.136321 eV
  Mean kinetic energy          =        6.000590 eV
  Heat capacity - const volume =        0.004601 eV/K
                               =      443.927070 J/(mol.K)
--------------------------------------------------------------------------------
  Phonon properties (per mole of unit cells): Temperature =    260.000 K
--------------------------------------------------------------------------------
  Zero point energy            =       11.560451 eV
  Entropy                      =        0.002845 eV/K
                               =      274.522894 J/(mol.K)
  Helmholtz free-energy        =     -410.500992 eV
                               =   -39607.067143 kJmol-1
  Free energy (equipartition)  =     -415.387957 eV
  - T*S       (equipartition)  =        2.119908 eV
  Uvib        (equipartition)  =        4.301774 eV
  Mean kinetic energy          =        6.024206 eV
  Heat capacity - const volume =        0.004845 eV/K
                               =      467.457363 J/(mol.K)
--------------------------------------------------------------------------------
  Phonon properties (per mole of unit cells): Temperature =    270.000 K
--------------------------------------------------------------------------------
  Zero point energy            =       11.560451 eV
  Entropy                      =        0.003033 eV/K
                               =      292.602105 J/(mol.K)
  Helmholtz free-energy        =     -410.530379 eV
                               =   -39609.902605 kJmol-1
  Free energy (equipartition)  =     -415.309564 eV
  - T*S       (equipartition)  =        2.032849 eV
  Uvib        (equipartition)  =        4.467227 eV
  Mean kinetic energy          =        6.049035 eV
  Heat capacity - const volume =        0.005086 eV/K
                               =      490.727675 J/(mol.K)
--------------------------------------------------------------------------------
  Phonon properties (per mole of unit cells): Temperature =    280.000 K
--------------------------------------------------------------------------------
  Zero point energy            =       11.560451 eV
  Entropy                      =        0.003222 eV/K
                               =      310.864997 J/(mol.K)
  Helmholtz free-energy        =     -410.561650 eV
                               =   -39612.919797 kJmol-1
  Free energy (equipartition)  =     -415.237300 eV
  - T*S       (equipartition)  =        1.939660 eV
  Uvib        (equipartition)  =        4.632680 eV
  Mean kinetic energy          =        6.075062 eV
  Heat capacity - const volume =        0.005324 eV/K
                               =      513.709755 J/(mol.K)
--------------------------------------------------------------------------------
  Phonon properties (per mole of unit cells): Temperature =    290.000 K
--------------------------------------------------------------------------------
  Zero point energy            =       11.560451 eV
  Entropy                      =        0.003413 eV/K
                               =      329.288115 J/(mol.K)
  Helmholtz free-energy        =     -410.594823 eV
                               =   -39616.120439 kJmol-1
  Free energy (equipartition)  =     -415.170946 eV
  - T*S       (equipartition)  =        1.840561 eV
  Uvib        (equipartition)  =        4.798133 eV
  Mean kinetic energy          =        6.102272 eV
  Heat capacity - const volume =        0.005559 eV/K
                               =      536.378738 J/(mol.K)
--------------------------------------------------------------------------------
  Phonon properties (per mole of unit cells): Temperature =    300.000 K
--------------------------------------------------------------------------------
  Zero point energy            =       11.560451 eV
  Entropy                      =        0.003605 eV/K
                               =      347.849603 J/(mol.K)
  Helmholtz free-energy        =     -410.629912 eV
                               =   -39619.506021 kJmol-1
  Free energy (equipartition)  =     -415.110299 eV
  - T*S       (equipartition)  =        1.735755 eV
  Uvib        (equipartition)  =        4.963586 eV
  Mean kinetic energy          =        6.130648 eV
  Heat capacity - const volume =        0.005791 eV/K
                               =      558.712942 J/(mol.K)
--------------------------------------------------------------------------------

  Time to end of properties =      71.9294 seconds


  Peak dynamic memory used =       3.43 MB 


  Timing analysis for GULP :

--------------------------------------------------------------------------------
  Task / Subroutine                                          Time (Seconds)
--------------------------------------------------------------------------------
  Calculation of real space energy and derivatives                0.0916
  Calculation of Brenner energy and derivatives                  61.3007
  Calculation of phonons                                         71.6358
  Disk read/write operations to scratch files                     0.2597
--------------------------------------------------------------------------------
  Total CPU time                                                 71.9295
--------------------------------------------------------------------------------


  Job Finished at 20:11.21 29th July       2020                               

