********************************************************************************
*                       GENERAL UTILITY LATTICE PROGRAM                        *
*                                 Julian Gale                                  *
*                       Curtin Institute for Computation                       *
*                    School of Molecular and Life Sciences                     *
*                    Curtin University, Western Australia                      *
********************************************************************************
* Version = 5.2.0 * Last modified =  17th December 2019                        *
********************************************************************************
*  optimise     - perform optimisation run                                     *
*  conv         - constant volume calculation                                  *
*  isotropic    - only isotropic cell expansion to be allowed                  *
*  conjugate    - use conjugate gradients minimiser                            *
********************************************************************************
* ASE calculation                                                              *
********************************************************************************


  Job Started  at 16:48.13 11th August     2020                               

  Number of CPUs =     1


  Total number of configurations input =      1

********************************************************************************
*  Input for Configuration =   1                                               *
********************************************************************************

  Formula = C64                                                         

  Number of irreducible atoms/shells =      64


  Total number atoms/shells =      64

  Dimensionality = 3               :  Bulk   



  Cartesian lattice vectors (Angstroms) :

        7.557812    0.000000    0.000000
        0.000000    7.557812    0.000000
        0.000000    0.000000    7.557812

  Cell parameters (Angstroms/Degrees):

  a =       7.5578    alpha =  90.0000
  b =       7.5578    beta  =  90.0000
  c =       7.5578    gamma =  90.0000

  Initial cell volume =         431.706168 Angs**3

  Temperature of configuration =   0.00     K 

  Pressure of configuration =         0.000 GPa 

  Fractional coordinates of asymmetric unit :

--------------------------------------------------------------------------------
   No.  Atomic       x           y          z         Charge      Occupancy
        Label      (Frac)      (Frac)     (Frac)        (e)         (Frac)  
--------------------------------------------------------------------------------
      1 C     c    0.025100    0.587150    0.365320     0.00000    1.000000    
      2 C     c    0.261960 *  0.102350 *  0.107880 *   0.00000    1.000000    
      3 C     c    0.100080 *  0.438460 *  0.267700 *   0.00000    1.000000    
      4 C     c    0.878960 *  0.966820 *  0.452800 *   0.00000    1.000000    
      5 C     c    0.476970 *  0.917400 *  0.988740 *   0.00000    1.000000    
      6 C     c    0.786990 *  0.447150 *  0.220140 *   0.00000    1.000000    
      7 C     c    0.923040 *  0.637520 *  0.717050 *   0.00000    1.000000    
      8 C     c    0.810170 *  0.554560 *  0.590260 *   0.00000    1.000000    
      9 C     c    0.131790 *  0.380040 *  0.638710 *   0.00000    1.000000    
     10 C     c    0.404270 *  0.764550 *  0.117610 *   0.00000    1.000000    
     11 C     c    0.889700 *  0.256980 *  0.746610 *   0.00000    1.000000    
     12 C     c    0.569910 *  0.900620 *  0.557400 *   0.00000    1.000000    
     13 C     c    0.425650 *  0.240870 *  0.632440 *   0.00000    1.000000    
     14 C     c    0.200020 *  0.983730 *  0.798590 *   0.00000    1.000000    
     15 C     c    0.523060 *  0.608540 *  0.406760 *   0.00000    1.000000    
     16 C     c    0.987720 *  0.938200 *  0.121300 *   0.00000    1.000000    
     17 C     c    0.134680 *  0.821550 *  0.858210 *   0.00000    1.000000    
     18 C     c    0.347750 *  0.690110 *  0.662490 *   0.00000    1.000000    
     19 C     c    0.738190 *  0.384180 *  0.683430 *   0.00000    1.000000    
     20 C     c    0.046450 *  0.258110 *  0.266300 *   0.00000    1.000000    
     21 C     c    0.936080 *  0.173340 *  0.419850 *   0.00000    1.000000    
     22 C     c    0.843300 *  0.615880 *  0.414970 *   0.00000    1.000000    
     23 C     c    0.478470 *  0.818970 *  0.689890 *   0.00000    1.000000    
     24 C     c    0.794120 *  0.296780 *  0.327440 *   0.00000    1.000000    
     25 C     c    0.669440 *  0.161030 *  0.017330 *   0.00000    1.000000    
     26 C     c    0.520340 *  0.604650 *  0.088340 *   0.00000    1.000000    
     27 C     c    0.606080 *  0.280540 *  0.571440 *   0.00000    1.000000    
     28 C     c    0.633890 *  0.989520 *  0.119020 *   0.00000    1.000000    
     29 C     c    0.479160 *  0.916090 *  0.251290 *   0.00000    1.000000    
     30 C     c    0.339390 *  0.056680 *  0.923070 *   0.00000    1.000000    
     31 C     c    0.810280 *  0.113020 *  0.884120 *   0.00000    1.000000    
     32 C     c    0.867950 *  0.767490 *  0.838090 *   0.00000    1.000000    
     33 C     c    0.307470 *  0.395320 *  0.575810 *   0.00000    1.000000    
     34 C     c    0.226620 *  0.687030 *  0.123410 *   0.00000    1.000000    
     35 C     c    0.071610 *  0.510040 *  0.779400 *   0.00000    1.000000    
     36 C     c    0.326190 *  0.102150 *  0.509580 *   0.00000    1.000000    
     37 C     c    0.121970 *  0.741100 *  0.423810 *   0.00000    1.000000    
     38 C     c    0.542650 *  0.314790 *  0.957100 *   0.00000    1.000000    
     39 C     c    0.063420 *  0.131370 *  0.109250 *   0.00000    1.000000    
     40 C     c    0.769650 *  0.942180 *  0.796810 *   0.00000    1.000000    
     41 C     c    0.392750 *  0.558230 *  0.534200 *   0.00000    1.000000    
     42 C     c    0.068180 *  0.896530 *  0.498720 *   0.00000    1.000000    
     43 C     c    0.001700 *  0.428840 *  0.954850 *   0.00000    1.000000    
     44 C     c    0.238470 *  0.500650 *  0.156150 *   0.00000    1.000000    
     45 C     c    0.195650 *  0.672080 *  0.768160 *   0.00000    1.000000    
     46 C     c    0.892950 *  0.519810 *  0.081840 *   0.00000    1.000000    
     47 C     c    0.799980 *  0.863030 *  0.155410 *   0.00000    1.000000    
     48 C     c    0.985830 *  0.222010 *  0.949250 *   0.00000    1.000000    
     49 C     c    0.775600 *  0.805360 *  0.350140 *   0.00000    1.000000    
     50 C     c    0.821570 *  0.700470 *  0.025360 *   0.00000    1.000000    
     51 C     c    0.158980 *  0.041530 *  0.607950 *   0.00000    1.000000    
     52 C     c    0.476040 *  0.263670 *  0.276630 *   0.00000    1.000000    
     53 C     c    0.434680 *  0.399100 *  0.122780 *   0.00000    1.000000    
     54 C     c    0.365660 *  0.086630 *  0.294640 *   0.00000    1.000000    
     55 C     c    0.624160 *  0.266270 *  0.391710 *   0.00000    1.000000    
     56 C     c    0.422290 *  0.211340 *  0.832230 *   0.00000    1.000000    
     57 C     c    0.643820 *  0.455720 *  0.850330 *   0.00000    1.000000    
     58 C     c    0.737120 *  0.967710 *  0.602660 *   0.00000    1.000000    
     59 C     c    0.099210 *  0.802470 *  0.043610 *   0.00000    1.000000    
     60 C     c    0.617730 *  0.536110 *  0.254430 *   0.00000    1.000000    
     61 C     c    0.572990 *  0.809180 *  0.390000 *   0.00000    1.000000    
     62 C     c    0.027000 *  0.208410 *  0.602340 *   0.00000    1.000000    
     63 C     c    0.640770 *  0.641500 *  0.932270 *   0.00000    1.000000    
     64 C     c    0.588560 *  0.824650 *  0.852350 *   0.00000    1.000000    
--------------------------------------------------------------------------------


  Constraints : 

--------------------------------------------------------------------------------
  Constraint no.      Unconstrained     Constrained    Coefficient    Offset
                         Variable         Variable
--------------------------------------------------------------------------------
           1              Strain 1        Strain 2       1.00000      0.0000
           2              Strain 1        Strain 3       1.00000      0.0000
--------------------------------------------------------------------------------


********************************************************************************
*  General input information                                                   *
********************************************************************************

  Species output for all configurations : 

--------------------------------------------------------------------------------
  Species    Type    Atomic    Atomic    Charge       Radii (Angs)     Library
                     Number     Mass       (e)     Cova   Ionic  VDW   Symbol
--------------------------------------------------------------------------------
    C        Core        6      12.01   0.000000   0.770  0.000  1.530          
--------------------------------------------------------------------------------


  Lattice summation method               =    Ewald          (3-D)
                                         =    Parry          (2-D)
                                         =    Saunders et al (1-D)
  Accuracy factor for lattice sums       =   12.000


  Analytic derivatives to be used

  Time limit = Infinity

  Maximum range for interatomic potentials =    100000.000000 Angstroms

  Brenner et al 2002 potential to be used with explicit splines for P


********************************************************************************
*  Output for configuration   1                                                *
********************************************************************************


  Components of energy : 

--------------------------------------------------------------------------------
  Interatomic potentials     =           0.00000000 eV    
  Brenner potentials         =        -428.43569043 eV    
  Monopole - monopole (real) =           0.00000000 eV    
  Monopole - monopole (recip)=           0.00000000 eV    
  Monopole - monopole (total)=           0.00000000 eV    
--------------------------------------------------------------------------------
  Total lattice energy       =        -428.43569043 eV    
--------------------------------------------------------------------------------
  Total lattice energy       =          -41337.4949 kJ/(mole unit cells)
--------------------------------------------------------------------------------


  Number of variables =      189

  Maximum number of calculations  =          2000
  Maximum Hessian update interval =            10
  Maximum step size               =   1.000000000
  Maximum parameter tolerance     =   0.000010000
  Maximum function  tolerance     =   0.000010000
  Maximum gradient  tolerance     =   0.001000000
  Maximum gradient  component     =   0.010000000

  Symmetry not applied to optimisation

  Conjugate gradient optimiser to be used

  Lower half triangular hessian to be used

  Start of bulk optimisation :

  Cycle:      0 Energy:      -428.435690  Gnorm:      0.070435  CPU:    0.025
  Cycle:      1 Energy:      -428.440478  Gnorm:      0.022789  CPU:    0.050
  Cycle:      2 Energy:      -428.441300  Gnorm:      0.022413  CPU:    0.064
  Cycle:      3 Energy:      -428.442230  Gnorm:      0.014741  CPU:    0.089
  Cycle:      4 Energy:      -428.442801  Gnorm:      0.016860  CPU:    0.098
  Cycle:      5 Energy:      -428.443513  Gnorm:      0.012811  CPU:    0.124
  Cycle:      6 Energy:      -428.443830  Gnorm:      0.011168  CPU:    0.133
  Cycle:      7 Energy:      -428.444194  Gnorm:      0.010918  CPU:    0.156
  Cycle:      8 Energy:      -428.444450  Gnorm:      0.009360  CPU:    0.166
  Cycle:      9 Energy:      -428.444626  Gnorm:      0.007395  CPU:    0.184
  Cycle:     10 Energy:      -428.444707  Gnorm:      0.004357  CPU:    0.200
  Cycle:     11 Energy:      -428.444804  Gnorm:      0.005775  CPU:    0.210
  Cycle:     12 Energy:      -428.444863  Gnorm:      0.003706  CPU:    0.233
  Cycle:     13 Energy:      -428.444929  Gnorm:      0.004037  CPU:    0.252
  Cycle:     14 Energy:      -428.444967  Gnorm:      0.003645  CPU:    0.268
  Cycle:     15 Energy:      -428.445021  Gnorm:      0.003345  CPU:    0.291
  Cycle:     16 Energy:      -428.445059  Gnorm:      0.003733  CPU:    0.321
  Cycle:     17 Energy:      -428.445110  Gnorm:      0.002727  CPU:    0.331
  Cycle:     18 Energy:      -428.445123  Gnorm:      0.002042  CPU:    0.356
  Cycle:     19 Energy:      -428.445137  Gnorm:      0.001499  CPU:    0.367
  Cycle:     20 Energy:      -428.445144  Gnorm:      0.001478  CPU:    0.390
  Cycle:     21 Energy:      -428.445149  Gnorm:      0.001486  CPU:    0.399
  Cycle:     22 Energy:      -428.445155  Gnorm:      0.001598  CPU:    0.424
  Cycle:     23 Energy:      -428.445161  Gnorm:      0.001037  CPU:    0.434
  Cycle:     24 Energy:      -428.445165  Gnorm:      0.001395  CPU:    0.459
  Cycle:     25 Energy:      -428.445168  Gnorm:      0.001113  CPU:    0.469
  Cycle:     26 Energy:      -428.445173  Gnorm:      0.000797  CPU:    0.494
  Cycle:     27 Energy:      -428.445178  Gnorm:      0.001539  CPU:    0.506
  Cycle:     28 Energy:      -428.445183  Gnorm:      0.001378  CPU:    0.529
  Cycle:     29 Energy:      -428.445188  Gnorm:      0.001122  CPU:    0.539
  Cycle:     30 Energy:      -428.445190  Gnorm:      0.000690  CPU:    0.554
  Cycle:     31 Energy:      -428.445192  Gnorm:      0.000863  CPU:    0.574
  Cycle:     32 Energy:      -428.445192  Gnorm:      0.000457  CPU:    0.587
  Cycle:     33 Energy:      -428.445193  Gnorm:      0.000418  CPU:    0.606
  Cycle:     34 Energy:      -428.445194  Gnorm:      0.000335  CPU:    0.614
  Cycle:     35 Energy:      -428.445194  Gnorm:      0.000288  CPU:    0.640
  Cycle:     36 Energy:      -428.445194  Gnorm:      0.000285  CPU:    0.648
  Cycle:     37 Energy:      -428.445194  Gnorm:      0.000285  CPU:    0.672
  Cycle:     38 Energy:      -428.445205  Gnorm:      0.001032  CPU:    0.710
  Cycle:     39 Energy:      -428.445209  Gnorm:      0.001285  CPU:    0.736
  Cycle:     40 Energy:      -428.445211  Gnorm:      0.000350  CPU:    0.745
  Cycle:     41 Energy:      -428.445211  Gnorm:      0.000303  CPU:    0.765
  Cycle:     42 Energy:      -428.445211  Gnorm:      0.000298  CPU:    0.779
  Cycle:     43 Energy:      -428.445211  Gnorm:      0.000298  CPU:    0.795


  **** Optimisation achieved ****


  Final energy =    -428.44521077 eV
  Final Gnorm  =       0.00029760

  Components of energy : 

--------------------------------------------------------------------------------
  Interatomic potentials     =           0.00000000 eV    
  Brenner potentials         =        -428.44521077 eV    
  Monopole - monopole (real) =           0.00000000 eV    
  Monopole - monopole (recip)=           0.00000000 eV    
  Monopole - monopole (total)=           0.00000000 eV    
--------------------------------------------------------------------------------
  Total lattice energy       =        -428.44521077 eV    
--------------------------------------------------------------------------------
  Total lattice energy       =          -41338.4135 kJ/(mole unit cells)
--------------------------------------------------------------------------------

  Final fractional coordinates of atoms :

--------------------------------------------------------------------------------
   No.  Atomic        x           y          z          Radius
        Label       (Frac)      (Frac)     (Frac)       (Angs) 
--------------------------------------------------------------------------------
     1  C     c     0.025100    0.587150    0.365320    0.000000
     2  C     c     0.262263    0.102292    0.108150    0.000000
     3  C     c     0.100173    0.438094    0.267941    0.000000
     4  C     c     0.878849    0.966587    0.452854    0.000000
     5  C     c     0.476784    0.917695    0.988564    0.000000
     6  C     c     0.787276    0.446739    0.219727    0.000000
     7  C     c     0.923803    0.638207    0.716834    0.000000
     8  C     c     0.810059    0.555230    0.590417    0.000000
     9  C     c     0.131552    0.379868    0.638293    0.000000
    10  C     c     0.403979    0.764681    0.117527    0.000000
    11  C     c     0.889966    0.257524    0.746766    0.000000
    12  C     c     0.569247    0.901706    0.557437    0.000000
    13  C     c     0.425686    0.240788    0.632509    0.000000
    14  C     c     0.199388    0.984001    0.798855    0.000000
    15  C     c     0.523385    0.608645    0.406820    0.000000
    16  C     c     0.987478    0.938241    0.121768    0.000000
    17  C     c     0.133723    0.821652    0.858200    0.000000
    18  C     c     0.347229    0.690451    0.662215    0.000000
    19  C     c     0.738335    0.384537    0.683456    0.000000
    20  C     c     0.047145    0.257513    0.266694    0.000000
    21  C     c     0.936025    0.172919    0.419770    0.000000
    22  C     c     0.843136    0.616123    0.414827    0.000000
    23  C     c     0.477825    0.819700    0.690031    0.000000
    24  C     c     0.794057    0.296116    0.326973    0.000000
    25  C     c     0.669577    0.161750    0.017963    0.000000
    26  C     c     0.520426    0.604774    0.088143    0.000000
    27  C     c     0.606278    0.280430    0.571499    0.000000
    28  C     c     0.633491    0.989999    0.119304    0.000000
    29  C     c     0.478638    0.916101    0.251616    0.000000
    30  C     c     0.339167    0.056877    0.923046    0.000000
    31  C     c     0.810443    0.113523    0.884571    0.000000
    32  C     c     0.869185    0.768416    0.838228    0.000000
    33  C     c     0.307387    0.395171    0.575266    0.000000
    34  C     c     0.226269    0.686805    0.123353    0.000000
    35  C     c     0.071681    0.509558    0.779375    0.000000
    36  C     c     0.326250    0.101736    0.509916    0.000000
    37  C     c     0.122706    0.740836    0.423797    0.000000
    38  C     c     0.542487    0.315151    0.957254    0.000000
    39  C     c     0.063709    0.130974    0.109517    0.000000
    40  C     c     0.769699    0.942663    0.797013    0.000000
    41  C     c     0.392691    0.558340    0.533990    0.000000
    42  C     c     0.068219    0.896191    0.498980    0.000000
    43  C     c     0.002504    0.428686    0.954950    0.000000
    44  C     c     0.238326    0.500250    0.155840    0.000000
    45  C     c     0.194929    0.672289    0.767820    0.000000
    46  C     c     0.893683    0.519975    0.081883    0.000000
    47  C     c     0.799495    0.863434    0.155781    0.000000
    48  C     c     0.986545    0.221761    0.949536    0.000000
    49  C     c     0.775375    0.805474    0.350345    0.000000
    50  C     c     0.822140    0.700819    0.025410    0.000000
    51  C     c     0.158848    0.041420    0.608144    0.000000
    52  C     c     0.475446    0.263690    0.276735    0.000000
    53  C     c     0.434106    0.399084    0.122824    0.000000
    54  C     c     0.365160    0.086551    0.295434    0.000000
    55  C     c     0.624037    0.266003    0.391527    0.000000
    56  C     c     0.422067    0.211702    0.832313    0.000000
    57  C     c     0.643781    0.456066    0.850350    0.000000
    58  C     c     0.736833    0.968646    0.602763    0.000000
    59  C     c     0.098466    0.802159    0.043758    0.000000
    60  C     c     0.618020    0.536080    0.254364    0.000000
    61  C     c     0.572730    0.809511    0.390286    0.000000
    62  C     c     0.026901    0.207980    0.602169    0.000000
    63  C     c     0.641170    0.642052    0.932109    0.000000
    64  C     c     0.588666    0.825097    0.852224    0.000000
--------------------------------------------------------------------------------

  Final internal derivatives :

--------------------------------------------------------------------------------
   No.  Atomic          a             b             c           Radius
        Label          (eV)          (eV)          (eV)        (eV/Angs)
--------------------------------------------------------------------------------
      1 C     c       0.000000      0.000000      0.000000      0.000000
      2 C     c      -0.000591     -0.003975     -0.003172      0.000000
      3 C     c       0.003940     -0.008200      0.001268      0.000000
      4 C     c      -0.001025     -0.005794     -0.000113      0.000000
      5 C     c       0.002299     -0.004625     -0.005426      0.000000
      6 C     c       0.002011     -0.009500     -0.004265      0.000000
      7 C     c      -0.003718     -0.005489     -0.007034      0.000000
      8 C     c       0.002419     -0.002282     -0.011235      0.000000
      9 C     c       0.004909     -0.002894     -0.008976      0.000000
     10 C     c       0.002313     -0.008503      0.001805      0.000000
     11 C     c       0.004133     -0.004633      0.001541      0.000000
     12 C     c       0.001140     -0.003586     -0.000241      0.000000
     13 C     c       0.003696     -0.003688     -0.000607      0.000000
     14 C     c       0.002295     -0.008186     -0.002994      0.000000
     15 C     c      -0.003455     -0.005875     -0.004926      0.000000
     16 C     c      -0.001413     -0.005248     -0.001004      0.000000
     17 C     c       0.003909     -0.003081      0.001221      0.000000
     18 C     c       0.002518     -0.003960     -0.002093      0.000000
     19 C     c      -0.000974     -0.014102     -0.000125      0.000000
     20 C     c      -0.000627     -0.003461     -0.000383      0.000000
     21 C     c       0.003645     -0.008179     -0.002177      0.000000
     22 C     c       0.001741     -0.010884     -0.002399      0.000000
     23 C     c       0.000124     -0.000448     -0.001232      0.000000
     24 C     c       0.000704     -0.004544     -0.006740      0.000000
     25 C     c       0.003891     -0.004659     -0.005332      0.000000
     26 C     c       0.003143     -0.004976     -0.006694      0.000000
     27 C     c      -0.001780     -0.011510     -0.001234      0.000000
     28 C     c      -0.001589     -0.001803     -0.005150      0.000000
     29 C     c       0.001711     -0.005456     -0.004305      0.000000
     30 C     c       0.001678     -0.004238     -0.005419      0.000000
     31 C     c      -0.001801     -0.003949      0.004524      0.000000
     32 C     c      -0.004266     -0.010870     -0.003963      0.000000
     33 C     c       0.001419     -0.003393     -0.001771      0.000000
     34 C     c       0.004537     -0.003873     -0.002198      0.000000
     35 C     c      -0.001811      0.002415     -0.005330      0.000000
     36 C     c      -0.001938     -0.005375     -0.001400      0.000000
     37 C     c       0.000193     -0.001929     -0.002006      0.000000
     38 C     c      -0.000290      0.000028     -0.005441      0.000000
     39 C     c       0.006323     -0.000044     -0.000811      0.000000
     40 C     c       0.004689      0.001062     -0.000989      0.000000
     41 C     c       0.000455     -0.004975     -0.002333      0.000000
     42 C     c       0.001028     -0.007632      0.002094      0.000000
     43 C     c      -0.000860     -0.002146      0.002238      0.000000
     44 C     c      -0.003665     -0.002305     -0.002432      0.000000
     45 C     c       0.004862     -0.002093      0.003662      0.000000
     46 C     c       0.003228     -0.002890     -0.005349      0.000000
     47 C     c       0.004160     -0.000937      0.002047      0.000000
     48 C     c      -0.001091      0.002320     -0.004385      0.000000
     49 C     c      -0.005729     -0.000376     -0.000776      0.000000
     50 C     c      -0.002043     -0.003966      0.001980      0.000000
     51 C     c      -0.000717     -0.006827     -0.003260      0.000000
     52 C     c      -0.003191     -0.007651     -0.002472      0.000000
     53 C     c       0.003768      0.000483     -0.002877      0.000000
     54 C     c      -0.001225     -0.006475     -0.002997      0.000000
     55 C     c       0.005273     -0.001834     -0.002831      0.000000
     56 C     c      -0.001352     -0.002482      0.001190      0.000000
     57 C     c       0.000588     -0.004255     -0.002603      0.000000
     58 C     c      -0.001509     -0.006012     -0.000823      0.000000
     59 C     c       0.004898      0.000334      0.001150      0.000000
     60 C     c       0.001801     -0.003523     -0.000318      0.000000
     61 C     c      -0.000875      0.001630     -0.002322      0.000000
     62 C     c       0.003223     -0.002372     -0.004306      0.000000
     63 C     c       0.002041     -0.004231     -0.004244      0.000000
     64 C     c       0.000796     -0.000440     -0.002541      0.000000
--------------------------------------------------------------------------------
  Maximum abs         0.006323      0.014102      0.011235      0.000000
--------------------------------------------------------------------------------


  Time to end of optimisation =       0.8125 seconds


  Peak dynamic memory used =       1.98 MB 


  Timing analysis for GULP :

--------------------------------------------------------------------------------
  Task / Subroutine                                          Time (Seconds)
--------------------------------------------------------------------------------
  Calculation of Brenner energy and derivatives                   0.7831
--------------------------------------------------------------------------------
  Total CPU time                                                  0.8126
--------------------------------------------------------------------------------


  CIF file written as opti_0.9800.cif


  Job Finished at 16:48.14 11th August     2020                               

