********************************************************************************
*                       GENERAL UTILITY LATTICE PROGRAM                        *
*                                 Julian Gale                                  *
*                       Curtin Institute for Computation                       *
*                    School of Molecular and Life Sciences                     *
*                    Curtin University, Western Australia                      *
********************************************************************************
* Version = 5.2.0 * Last modified =  17th December 2019                        *
********************************************************************************
*  optimise     - perform optimisation run                                     *
*  conv         - constant volume calculation                                  *
*  isotropic    - only isotropic cell expansion to be allowed                  *
*  lbfgs        - use limited memory BFGS update                               *
********************************************************************************
* ASE calculation                                                              *
********************************************************************************


  Job Started  at 16:20.04 12th August     2020                               

  Number of CPUs =     1


  Total number of configurations input =      1

********************************************************************************
*  Input for Configuration =   1                                               *
********************************************************************************

  Formula = C64                                                         

  Number of irreducible atoms/shells =      64


  Total number atoms/shells =      64

  Dimensionality = 3               :  Bulk   



  Cartesian lattice vectors (Angstroms) :

        7.488658    0.000000    0.000000
        0.000000    7.488658    0.000000
        0.000000    0.000000    7.488658

  Cell parameters (Angstroms/Degrees):

  a =       7.4887    alpha =  90.0000
  b =       7.4887    beta  =  90.0000
  c =       7.4887    gamma =  90.0000

  Initial cell volume =         419.963930 Angs**3

  Temperature of configuration =   0.00     K 

  Pressure of configuration =         0.000 GPa 

  Fractional coordinates of asymmetric unit :

--------------------------------------------------------------------------------
   No.  Atomic       x           y          z         Charge      Occupancy
        Label      (Frac)      (Frac)     (Frac)        (e)         (Frac)  
--------------------------------------------------------------------------------
      1 C     c    0.082860    0.546420    0.420470     0.00000    1.000000    
      2 C     c    0.300470 *  0.098480 *  0.158050 *   0.00000    1.000000    
      3 C     c    0.135430 *  0.397320 *  0.321400 *   0.00000    1.000000    
      4 C     c    0.905490 *  0.925920 *  0.500530 *   0.00000    1.000000    
      5 C     c    0.496470 *  0.888330 *  0.033250 *   0.00000    1.000000    
      6 C     c    0.816780 *  0.441270 *  0.290230 *   0.00000    1.000000    
      7 C     c    0.945770 *  0.607820 *  0.761780 *   0.00000    1.000000    
      8 C     c    0.840320 *  0.519590 *  0.629820 *   0.00000    1.000000    
      9 C     c    0.152890 *  0.348160 *  0.688790 *   0.00000    1.000000    
     10 C     c    0.417360 *  0.733360 *  0.168120 *   0.00000    1.000000    
     11 C     c    0.912950 *  0.222370 *  0.789680 *   0.00000    1.000000    
     12 C     c    0.594660 *  0.873970 *  0.593910 *   0.00000    1.000000    
     13 C     c    0.450710 *  0.212820 *  0.666970 *   0.00000    1.000000    
     14 C     c    0.222920 *  0.959920 *  0.855440 *   0.00000    1.000000    
     15 C     c    0.544790 *  0.575680 *  0.447490 *   0.00000    1.000000    
     16 C     c    0.011880 *  0.923390 *  0.168010 *   0.00000    1.000000    
     17 C     c    0.170450 *  0.793090 *  0.921890 *   0.00000    1.000000    
     18 C     c    0.324040 *  0.692350 *  0.651930 *   0.00000    1.000000    
     19 C     c    0.762670 *  0.347470 *  0.713160 *   0.00000    1.000000    
     20 C     c    0.064920 *  0.226020 *  0.316700 *   0.00000    1.000000    
     21 C     c    0.939020 *  0.137230 *  0.452960 *   0.00000    1.000000    
     22 C     c    0.882990 *  0.573160 *  0.439880 *   0.00000    1.000000    
     23 C     c    0.483380 *  0.799280 *  0.721410 *   0.00000    1.000000    
     24 C     c    0.800220 *  0.235140 *  0.302270 *   0.00000    1.000000    
     25 C     c    0.720270 *  0.151940 *  0.111960 *   0.00000    1.000000    
     26 C     c    0.529470 *  0.570940 *  0.123160 *   0.00000    1.000000    
     27 C     c    0.623950 *  0.264260 *  0.582370 *   0.00000    1.000000    
     28 C     c    0.661500 *  0.958000 *  0.159510 *   0.00000    1.000000    
     29 C     c    0.510700 *  0.875200 *  0.296820 *   0.00000    1.000000    
     30 C     c    0.368170 *  0.034740 *  0.972170 *   0.00000    1.000000    
     31 C     c    0.838010 *  0.084970 *  0.940300 *   0.00000    1.000000    
     32 C     c    0.887020 *  0.741300 *  0.878490 *   0.00000    1.000000    
     33 C     c    0.329920 *  0.369220 *  0.625000 *   0.00000    1.000000    
     34 C     c    0.234910 *  0.665930 *  0.237200 *   0.00000    1.000000    
     35 C     c    0.097820 *  0.482080 *  0.828230 *   0.00000    1.000000    
     36 C     c    0.357300 *  0.059430 *  0.561620 *   0.00000    1.000000    
     37 C     c    0.205560 *  0.709380 *  0.458790 *   0.00000    1.000000    
     38 C     c    0.577830 *  0.283650 *  0.000200 *   0.00000    1.000000    
     39 C     c    0.096250 *  0.111340 *  0.154850 *   0.00000    1.000000    
     40 C     c    0.783300 *  0.916310 *  0.845700 *   0.00000    1.000000    
     41 C     c    0.406360 *  0.526900 *  0.561540 *   0.00000    1.000000    
     42 C     c    0.094690 *  0.865200 *  0.548260 *   0.00000    1.000000    
     43 C     c    0.072230 *  0.412820 *  0.017680 *   0.00000    1.000000    
     44 C     c    0.238240 *  0.455410 *  0.151960 *   0.00000    1.000000    
     45 C     c    0.203740 *  0.654420 *  0.807420 *   0.00000    1.000000    
     46 C     c    0.918830 *  0.504530 *  0.126220 *   0.00000    1.000000    
     47 C     c    0.828050 *  0.833420 *  0.193820 *   0.00000    1.000000    
     48 C     c    0.017560 *  0.212950 *  0.992570 *   0.00000    1.000000    
     49 C     c    0.812710 *  0.769570 *  0.389370 *   0.00000    1.000000    
     50 C     c    0.835940 *  0.673740 *  0.062610 *   0.00000    1.000000    
     51 C     c    0.185060 *  0.009430 *  0.659170 *   0.00000    1.000000    
     52 C     c    0.457630 *  0.216810 *  0.274090 *   0.00000    1.000000    
     53 C     c    0.431410 *  0.378370 *  0.134190 *   0.00000    1.000000    
     54 C     c    0.387750 *  0.028060 *  0.356610 *   0.00000    1.000000    
     55 C     c    0.620120 *  0.243470 *  0.401380 *   0.00000    1.000000    
     56 C     c    0.467290 *  0.174440 *  0.869580 *   0.00000    1.000000    
     57 C     c    0.671060 *  0.425450 *  0.885090 *   0.00000    1.000000    
     58 C     c    0.760010 *  0.942560 *  0.648250 *   0.00000    1.000000    
     59 C     c    0.130720 *  0.786950 *  0.105540 *   0.00000    1.000000    
     60 C     c    0.614630 *  0.488110 *  0.292770 *   0.00000    1.000000    
     61 C     c    0.609350 *  0.770250 *  0.432430 *   0.00000    1.000000    
     62 C     c    0.047380 *  0.170810 *  0.640760 *   0.00000    1.000000    
     63 C     c    0.654620 *  0.612400 *  0.969500 *   0.00000    1.000000    
     64 C     c    0.597000 *  0.795710 *  0.888070 *   0.00000    1.000000    
--------------------------------------------------------------------------------


  Constraints : 

--------------------------------------------------------------------------------
  Constraint no.      Unconstrained     Constrained    Coefficient    Offset
                         Variable         Variable
--------------------------------------------------------------------------------
           1              Strain 1        Strain 2       1.00000      0.0000
           2              Strain 1        Strain 3       1.00000      0.0000
--------------------------------------------------------------------------------


********************************************************************************
*  General input information                                                   *
********************************************************************************

  Species output for all configurations : 

--------------------------------------------------------------------------------
  Species    Type    Atomic    Atomic    Charge       Radii (Angs)     Library
                     Number     Mass       (e)     Cova   Ionic  VDW   Symbol
--------------------------------------------------------------------------------
    C        Core        6      12.01   0.000000   0.770  0.000  1.530          
--------------------------------------------------------------------------------


  Lattice summation method               =    Ewald          (3-D)
                                         =    Parry          (2-D)
                                         =    Saunders et al (1-D)
  Accuracy factor for lattice sums       =   12.000


  Analytic derivatives to be used

  Time limit = Infinity

  Maximum range for interatomic potentials =    100000.000000 Angstroms

  Brenner et al 2002 potential to be used with explicit splines for P


********************************************************************************
*  Output for configuration   1                                                *
********************************************************************************


  Components of energy : 

--------------------------------------------------------------------------------
  Interatomic potentials     =           0.00000000 eV    
  Brenner potentials         =        -425.28876279 eV    
  Monopole - monopole (real) =           0.00000000 eV    
  Monopole - monopole (recip)=           0.00000000 eV    
  Monopole - monopole (total)=           0.00000000 eV    
--------------------------------------------------------------------------------
  Total lattice energy       =        -425.28876279 eV    
--------------------------------------------------------------------------------
  Total lattice energy       =          -41033.8645 kJ/(mole unit cells)
--------------------------------------------------------------------------------


  Number of variables =      189

  Maximum number of calculations  =          2000
  Maximum Hessian update interval =            10
  Maximum step size               =   1.000000000
  Maximum parameter tolerance     =   0.000010000
  Maximum function  tolerance     =   0.000010000
  Maximum gradient  tolerance     =   0.001000000
  Maximum gradient  component     =   0.010000000

  Maximum LM gradient tolerance   =   0.900000000
  Symmetry not applied to optimisation

  Limited Memory BFGS to be used of order   10

  BFGS hessian update to be used

  Lower half triangular hessian to be used

  Start of bulk optimisation :

  Cycle:      0 Energy:      -425.288763  Gnorm:      0.079832  CPU:    0.014
  Cycle:      1 Energy:      -425.292461  Gnorm:      0.055275  CPU:    0.018
  Cycle:      2 Energy:      -425.296682  Gnorm:      0.014055  CPU:    0.022
  Cycle:      3 Energy:      -425.297117  Gnorm:      0.011482  CPU:    0.026
  Cycle:      4 Energy:      -425.298042  Gnorm:      0.010589  CPU:    0.045
  Cycle:      5 Energy:      -425.298100  Gnorm:      0.026185  CPU:    0.052
  Cycle:      6 Energy:      -425.298673  Gnorm:      0.008151  CPU:    0.057
  Cycle:      7 Energy:      -425.298838  Gnorm:      0.005431  CPU:    0.061
  Cycle:      8 Energy:      -425.299038  Gnorm:      0.006234  CPU:    0.083
  Cycle:      9 Energy:      -425.299240  Gnorm:      0.005439  CPU:    0.089
  Cycle:     10 Energy:      -425.299433  Gnorm:      0.006868  CPU:    0.094
  Cycle:     11 Energy:      -425.299457  Gnorm:      0.009559  CPU:    0.098
  Cycle:     12 Energy:      -425.299552  Gnorm:      0.002253  CPU:    0.101
  Cycle:     13 Energy:      -425.299567  Gnorm:      0.001861  CPU:    0.105
  Cycle:     14 Energy:      -425.299601  Gnorm:      0.002149  CPU:    0.126
  Cycle:     15 Energy:      -425.299608  Gnorm:      0.005387  CPU:    0.133
  Cycle:     16 Energy:      -425.299637  Gnorm:      0.001625  CPU:    0.137
  Cycle:     17 Energy:      -425.299645  Gnorm:      0.001081  CPU:    0.141
  Cycle:     18 Energy:      -425.299654  Gnorm:      0.001163  CPU:    0.145
  Cycle:     19 Energy:      -425.299665  Gnorm:      0.001230  CPU:    0.148
  Cycle:     20 Energy:      -425.299671  Gnorm:      0.001672  CPU:    0.170
  Cycle:     21 Energy:      -425.299678  Gnorm:      0.000899  CPU:    0.177
  Cycle:     22 Energy:      -425.299683  Gnorm:      0.000921  CPU:    0.183
  Cycle:     23 Energy:      -425.299688  Gnorm:      0.001687  CPU:    0.186
  Cycle:     24 Energy:      -425.299694  Gnorm:      0.000930  CPU:    0.190
  Cycle:     25 Energy:      -425.299698  Gnorm:      0.000859  CPU:    0.193
  Cycle:     26 Energy:      -425.299703  Gnorm:      0.000997  CPU:    0.212
  Cycle:     27 Energy:      -425.299708  Gnorm:      0.001694  CPU:    0.220
  Cycle:     28 Energy:      -425.299714  Gnorm:      0.000923  CPU:    0.225
  Cycle:     29 Energy:      -425.299719  Gnorm:      0.000921  CPU:    0.230
  Cycle:     30 Energy:      -425.299726  Gnorm:      0.001438  CPU:    0.233
  Cycle:     31 Energy:      -425.299732  Gnorm:      0.001586  CPU:    0.237
  Cycle:     32 Energy:      -425.299739  Gnorm:      0.001105  CPU:    0.246
  Cycle:     33 Energy:      -425.299750  Gnorm:      0.001269  CPU:    0.268
  Cycle:     34 Energy:      -425.299759  Gnorm:      0.001752  CPU:    0.287
  Cycle:     35 Energy:      -425.299772  Gnorm:      0.001482  CPU:    0.293
  Cycle:     36 Energy:      -425.299786  Gnorm:      0.002342  CPU:    0.298
  Cycle:     37 Energy:      -425.299800  Gnorm:      0.001406  CPU:    0.302
  Cycle:     38 Energy:      -425.299808  Gnorm:      0.001144  CPU:    0.306
  Cycle:     39 Energy:      -425.299820  Gnorm:      0.001389  CPU:    0.309
  Cycle:     40 Energy:      -425.299825  Gnorm:      0.003657  CPU:    0.328
  Cycle:     41 Energy:      -425.299839  Gnorm:      0.001620  CPU:    0.336
  Cycle:     42 Energy:      -425.299849  Gnorm:      0.001049  CPU:    0.341
  Cycle:     43 Energy:      -425.299857  Gnorm:      0.001314  CPU:    0.345
  Cycle:     44 Energy:      -425.299873  Gnorm:      0.001567  CPU:    0.349
  Cycle:     45 Energy:      -425.299879  Gnorm:      0.002347  CPU:    0.354
  Cycle:     46 Energy:      -425.299892  Gnorm:      0.001252  CPU:    0.372
  Cycle:     47 Energy:      -425.299900  Gnorm:      0.000861  CPU:    0.380
  Cycle:     48 Energy:      -425.299907  Gnorm:      0.001505  CPU:    0.385
  Cycle:     49 Energy:      -425.299911  Gnorm:      0.001524  CPU:    0.389
  Cycle:     50 Energy:      -425.299914  Gnorm:      0.000761  CPU:    0.393
  Cycle:     51 Energy:      -425.299917  Gnorm:      0.000630  CPU:    0.396
  Cycle:     52 Energy:      -425.299919  Gnorm:      0.000679  CPU:    0.400
  Cycle:     53 Energy:      -425.299921  Gnorm:      0.001480  CPU:    0.420
  Cycle:     54 Energy:      -425.299923  Gnorm:      0.000541  CPU:    0.427
  Cycle:     55 Energy:      -425.299924  Gnorm:      0.000282  CPU:    0.431
  Cycle:     56 Energy:      -425.299924  Gnorm:      0.000235  CPU:    0.435
  Cycle:     57 Energy:      -425.299925  Gnorm:      0.000287  CPU:    0.439
  Cycle:     58 Energy:      -425.299925  Gnorm:      0.000455  CPU:    0.445
  Cycle:     59 Energy:      -425.299926  Gnorm:      0.000291  CPU:    0.465


  **** Optimisation achieved ****


  Final energy =    -425.29992625 eV
  Final Gnorm  =       0.00020817

  Components of energy : 

--------------------------------------------------------------------------------
  Interatomic potentials     =           0.00000000 eV    
  Brenner potentials         =        -425.29992625 eV    
  Monopole - monopole (real) =           0.00000000 eV    
  Monopole - monopole (recip)=           0.00000000 eV    
  Monopole - monopole (total)=           0.00000000 eV    
--------------------------------------------------------------------------------
  Total lattice energy       =        -425.29992625 eV    
--------------------------------------------------------------------------------
  Total lattice energy       =          -41034.9416 kJ/(mole unit cells)
--------------------------------------------------------------------------------

  Final fractional coordinates of atoms :

--------------------------------------------------------------------------------
   No.  Atomic        x           y          z          Radius
        Label       (Frac)      (Frac)     (Frac)       (Angs) 
--------------------------------------------------------------------------------
     1  C     c     0.082860    0.546420    0.420470    0.000000
     2  C     c     0.299794    0.098721    0.157128    0.000000
     3  C     c     0.135894    0.397246    0.321341    0.000000
     4  C     c     0.904982    0.925877    0.499593    0.000000
     5  C     c     0.495743    0.888661    0.032200    0.000000
     6  C     c     0.816909    0.441481    0.289099    0.000000
     7  C     c     0.945483    0.608379    0.760661    0.000000
     8  C     c     0.839594    0.520089    0.628838    0.000000
     9  C     c     0.152134    0.348305    0.687436    0.000000
    10  C     c     0.416866    0.733473    0.167197    0.000000
    11  C     c     0.912522    0.222837    0.788689    0.000000
    12  C     c     0.593734    0.875367    0.592773    0.000000
    13  C     c     0.450266    0.212811    0.666101    0.000000
    14  C     c     0.221780    0.960294    0.854793    0.000000
    15  C     c     0.544749    0.575695    0.446824    0.000000
    16  C     c     0.011051    0.923869    0.167497    0.000000
    17  C     c     0.169491    0.793213    0.921269    0.000000
    18  C     c     0.324143    0.692661    0.651664    0.000000
    19  C     c     0.762256    0.347755    0.712172    0.000000
    20  C     c     0.065020    0.225909    0.316546    0.000000
    21  C     c     0.938367    0.137124    0.452316    0.000000
    22  C     c     0.882711    0.573411    0.438868    0.000000
    23  C     c     0.482747    0.800423    0.720600    0.000000
    24  C     c     0.799853    0.235288    0.300896    0.000000
    25  C     c     0.719639    0.152371    0.110988    0.000000
    26  C     c     0.529072    0.570973    0.122120    0.000000
    27  C     c     0.623651    0.264402    0.581509    0.000000
    28  C     c     0.660683    0.958458    0.158736    0.000000
    29  C     c     0.510034    0.875316    0.296268    0.000000
    30  C     c     0.367358    0.035075    0.971264    0.000000
    31  C     c     0.837572    0.085536    0.939655    0.000000
    32  C     c     0.887251    0.742246    0.877483    0.000000
    33  C     c     0.329338    0.369216    0.623672    0.000000
    34  C     c     0.234393    0.666213    0.236204    0.000000
    35  C     c     0.097436    0.482210    0.827167    0.000000
    36  C     c     0.356864    0.059158    0.561076    0.000000
    37  C     c     0.205414    0.709692    0.458260    0.000000
    38  C     c     0.577418    0.283892    0.999347    0.000000
    39  C     c     0.095670    0.111580    0.154175    0.000000
    40  C     c     0.782802    0.917003    0.844785    0.000000
    41  C     c     0.406033    0.527119    0.560723    0.000000
    42  C     c     0.094075    0.865100    0.547719    0.000000
    43  C     c     0.072018    0.412950    0.016580    0.000000
    44  C     c     0.237558    0.455242    0.151012    0.000000
    45  C     c     0.203992    0.654305    0.807114    0.000000
    46  C     c     0.918749    0.504943    0.125035    0.000000
    47  C     c     0.827232    0.833827    0.193053    0.000000
    48  C     c     0.017405    0.213133    0.991889    0.000000
    49  C     c     0.812341    0.769697    0.388540    0.000000
    50  C     c     0.835655    0.674293    0.061544    0.000000
    51  C     c     0.184368    0.009518    0.658521    0.000000
    52  C     c     0.457182    0.217029    0.273613    0.000000
    53  C     c     0.430656    0.378313    0.133069    0.000000
    54  C     c     0.386951    0.028120    0.356142    0.000000
    55  C     c     0.619813    0.243713    0.400351    0.000000
    56  C     c     0.466717    0.174702    0.868631    0.000000
    57  C     c     0.670633    0.425744    0.884070    0.000000
    58  C     c     0.759373    0.943977    0.647258    0.000000
    59  C     c     0.129617    0.787010    0.104996    0.000000
    60  C     c     0.614448    0.487951    0.291894    0.000000
    61  C     c     0.609052    0.770379    0.431785    0.000000
    62  C     c     0.046785    0.170796    0.639700    0.000000
    63  C     c     0.654299    0.612822    0.968315    0.000000
    64  C     c     0.596684    0.796330    0.887041    0.000000
--------------------------------------------------------------------------------

  Final internal derivatives :

--------------------------------------------------------------------------------
   No.  Atomic          a             b             c           Radius
        Label          (eV)          (eV)          (eV)        (eV/Angs)
--------------------------------------------------------------------------------
      1 C     c       0.000000      0.000000      0.000000      0.000000
      2 C     c      -0.000788     -0.000406     -0.002753      0.000000
      3 C     c       0.002108     -0.001159      0.000049      0.000000
      4 C     c      -0.000289     -0.002395     -0.002528      0.000000
      5 C     c      -0.000440     -0.000027      0.003832      0.000000
      6 C     c       0.000379     -0.000378      0.000180      0.000000
      7 C     c      -0.003134     -0.004985      0.000026      0.000000
      8 C     c       0.000715     -0.003668      0.002980      0.000000
      9 C     c      -0.001691     -0.002917     -0.005196      0.000000
     10 C     c       0.002799      0.001032      0.003688      0.000000
     11 C     c      -0.002391     -0.000315     -0.002360      0.000000
     12 C     c       0.000351     -0.002306      0.000321      0.000000
     13 C     c      -0.000524      0.001343      0.000514      0.000000
     14 C     c       0.003504     -0.004705     -0.004061      0.000000
     15 C     c      -0.002251     -0.000370     -0.000883      0.000000
     16 C     c       0.002148     -0.001076      0.001361      0.000000
     17 C     c      -0.000707     -0.003435     -0.002598      0.000000
     18 C     c      -0.001068     -0.000559      0.000206      0.000000
     19 C     c      -0.001860     -0.000758      0.004058      0.000000
     20 C     c       0.003562     -0.001446      0.004208      0.000000
     21 C     c      -0.001029     -0.004203      0.004074      0.000000
     22 C     c       0.001586     -0.002571      0.003426      0.000000
     23 C     c       0.001904     -0.003381      0.002032      0.000000
     24 C     c      -0.004595      0.000232     -0.004698      0.000000
     25 C     c      -0.001526     -0.001740     -0.001244      0.000000
     26 C     c      -0.001582      0.000307     -0.001413      0.000000
     27 C     c      -0.000102      0.001701     -0.000124      0.000000
     28 C     c      -0.000041      0.002386      0.000712      0.000000
     29 C     c       0.001918     -0.006646     -0.004547      0.000000
     30 C     c       0.000470      0.000589     -0.006072      0.000000
     31 C     c       0.000189      0.001548     -0.002885      0.000000
     32 C     c      -0.000554     -0.005323     -0.000106      0.000000
     33 C     c      -0.001821     -0.000628     -0.002592      0.000000
     34 C     c       0.000727      0.001926      0.006414      0.000000
     35 C     c      -0.003928     -0.006426     -0.003029      0.000000
     36 C     c      -0.002727      0.000618      0.001064      0.000000
     37 C     c      -0.001591      0.000547     -0.008236      0.000000
     38 C     c       0.002926     -0.007467     -0.004092      0.000000
     39 C     c      -0.001570      0.000652      0.001323      0.000000
     40 C     c       0.001977     -0.003482     -0.002400      0.000000
     41 C     c      -0.002079      0.000018     -0.000851      0.000000
     42 C     c      -0.002719     -0.005111     -0.001279      0.000000
     43 C     c       0.004133     -0.003048     -0.002603      0.000000
     44 C     c      -0.000253     -0.002228     -0.004105      0.000000
     45 C     c       0.003626     -0.006074      0.000354      0.000000
     46 C     c       0.004497      0.000641     -0.000509      0.000000
     47 C     c       0.004183     -0.001228      0.004101      0.000000
     48 C     c      -0.001842      0.001516     -0.001733      0.000000
     49 C     c       0.000593     -0.003049      0.004141      0.000000
     50 C     c      -0.002614     -0.003962     -0.000234      0.000000
     51 C     c       0.000367     -0.007867      0.000025      0.000000
     52 C     c      -0.001377      0.000819      0.001390      0.000000
     53 C     c      -0.001181     -0.002260     -0.002888      0.000000
     54 C     c       0.000154     -0.008107     -0.001940      0.000000
     55 C     c       0.000821     -0.002435     -0.000437      0.000000
     56 C     c      -0.001382      0.001211     -0.002092      0.000000
     57 C     c      -0.003921     -0.007314      0.003762      0.000000
     58 C     c       0.000567     -0.002844     -0.001468      0.000000
     59 C     c      -0.002223     -0.003825     -0.002283      0.000000
     60 C     c      -0.002846     -0.003438     -0.000591      0.000000
     61 C     c       0.000960     -0.001575      0.000775      0.000000
     62 C     c      -0.001944     -0.002224      0.001206      0.000000
     63 C     c      -0.000789     -0.001994      0.001550      0.000000
     64 C     c       0.006755     -0.000052      0.002497      0.000000
--------------------------------------------------------------------------------
  Maximum abs         0.006755      0.008107      0.008236      0.000000
--------------------------------------------------------------------------------


  Time to end of optimisation =       0.4718 seconds


  Peak dynamic memory used =       2.01 MB 


  Timing analysis for GULP :

--------------------------------------------------------------------------------
  Task / Subroutine                                          Time (Seconds)
--------------------------------------------------------------------------------
  Calculation of Brenner energy and derivatives                   0.4552
--------------------------------------------------------------------------------
  Total CPU time                                                  0.4718
--------------------------------------------------------------------------------


  CIF file written as opti_0.9800.cif


  Job Finished at 16:20.04 12th August     2020                               

