********************************************************************************
*                       GENERAL UTILITY LATTICE PROGRAM                        *
*                                 Julian Gale                                  *
*                       Curtin Institute for Computation                       *
*                    School of Molecular and Life Sciences                     *
*                    Curtin University, Western Australia                      *
********************************************************************************
* Version = 5.2.0 * Last modified =  17th December 2019                        *
********************************************************************************
*  optimise     - perform optimisation run                                     *
*  conv         - constant volume calculation                                  *
*  isotropic    - only isotropic cell expansion to be allowed                  *
*  conjugate    - use conjugate gradients minimiser                            *
********************************************************************************
* ASE calculation                                                              *
********************************************************************************


  Job Started  at 23:34.08 10th August     2020                               

  Number of CPUs =     1


  Total number of configurations input =      1

********************************************************************************
*  Input for Configuration =   1                                               *
********************************************************************************

  Formula = C64                                                         

  Number of irreducible atoms/shells =      64


  Total number atoms/shells =      64

  Dimensionality = 3               :  Bulk   



  Cartesian lattice vectors (Angstroms) :

        7.557912    0.000000    0.000000
        0.000000    7.557912    0.000000
        0.000000    0.000000    7.557912

  Cell parameters (Angstroms/Degrees):

  a =       7.5579    alpha =  90.0000
  b =       7.5579    beta  =  90.0000
  c =       7.5579    gamma =  90.0000

  Initial cell volume =         431.723305 Angs**3

  Temperature of configuration =   0.00     K 

  Pressure of configuration =         0.000 GPa 

  Fractional coordinates of asymmetric unit :

--------------------------------------------------------------------------------
   No.  Atomic       x           y          z         Charge      Occupancy
        Label      (Frac)      (Frac)     (Frac)        (e)         (Frac)  
--------------------------------------------------------------------------------
      1 C     c    0.025100    0.587150    0.365320     0.00000    1.000000    
      2 C     c    0.261960 *  0.102350 *  0.107880 *   0.00000    1.000000    
      3 C     c    0.100080 *  0.438460 *  0.267700 *   0.00000    1.000000    
      4 C     c    0.878960 *  0.966820 *  0.452800 *   0.00000    1.000000    
      5 C     c    0.476970 *  0.917400 *  0.988740 *   0.00000    1.000000    
      6 C     c    0.786990 *  0.447150 *  0.220140 *   0.00000    1.000000    
      7 C     c    0.923040 *  0.637530 *  0.717050 *   0.00000    1.000000    
      8 C     c    0.810170 *  0.554570 *  0.590270 *   0.00000    1.000000    
      9 C     c    0.131790 *  0.380040 *  0.638710 *   0.00000    1.000000    
     10 C     c    0.404270 *  0.764550 *  0.117610 *   0.00000    1.000000    
     11 C     c    0.889700 *  0.256980 *  0.746610 *   0.00000    1.000000    
     12 C     c    0.569910 *  0.900620 *  0.557400 *   0.00000    1.000000    
     13 C     c    0.425650 *  0.240870 *  0.632440 *   0.00000    1.000000    
     14 C     c    0.200020 *  0.983730 *  0.798590 *   0.00000    1.000000    
     15 C     c    0.523060 *  0.608540 *  0.406760 *   0.00000    1.000000    
     16 C     c    0.987720 *  0.938200 *  0.121300 *   0.00000    1.000000    
     17 C     c    0.134680 *  0.821550 *  0.858210 *   0.00000    1.000000    
     18 C     c    0.347750 *  0.690110 *  0.662490 *   0.00000    1.000000    
     19 C     c    0.738190 *  0.384180 *  0.683430 *   0.00000    1.000000    
     20 C     c    0.046460 *  0.258110 *  0.266300 *   0.00000    1.000000    
     21 C     c    0.936080 *  0.173340 *  0.419850 *   0.00000    1.000000    
     22 C     c    0.843300 *  0.615880 *  0.414960 *   0.00000    1.000000    
     23 C     c    0.478470 *  0.818970 *  0.689890 *   0.00000    1.000000    
     24 C     c    0.794120 *  0.296780 *  0.327440 *   0.00000    1.000000    
     25 C     c    0.669440 *  0.161030 *  0.017330 *   0.00000    1.000000    
     26 C     c    0.520340 *  0.604650 *  0.088350 *   0.00000    1.000000    
     27 C     c    0.606080 *  0.280540 *  0.571440 *   0.00000    1.000000    
     28 C     c    0.633890 *  0.989520 *  0.119020 *   0.00000    1.000000    
     29 C     c    0.479160 *  0.916090 *  0.251290 *   0.00000    1.000000    
     30 C     c    0.339390 *  0.056680 *  0.923070 *   0.00000    1.000000    
     31 C     c    0.810280 *  0.113020 *  0.884120 *   0.00000    1.000000    
     32 C     c    0.867960 *  0.767490 *  0.838100 *   0.00000    1.000000    
     33 C     c    0.307470 *  0.395320 *  0.575810 *   0.00000    1.000000    
     34 C     c    0.226620 *  0.687030 *  0.123410 *   0.00000    1.000000    
     35 C     c    0.071610 *  0.510040 *  0.779400 *   0.00000    1.000000    
     36 C     c    0.326190 *  0.102150 *  0.509580 *   0.00000    1.000000    
     37 C     c    0.121970 *  0.741100 *  0.423810 *   0.00000    1.000000    
     38 C     c    0.542650 *  0.314790 *  0.957100 *   0.00000    1.000000    
     39 C     c    0.063420 *  0.131370 *  0.109250 *   0.00000    1.000000    
     40 C     c    0.769650 *  0.942180 *  0.796810 *   0.00000    1.000000    
     41 C     c    0.392750 *  0.558230 *  0.534200 *   0.00000    1.000000    
     42 C     c    0.068190 *  0.896530 *  0.498720 *   0.00000    1.000000    
     43 C     c    0.001700 *  0.428840 *  0.954850 *   0.00000    1.000000    
     44 C     c    0.238470 *  0.500650 *  0.156150 *   0.00000    1.000000    
     45 C     c    0.195640 *  0.672080 *  0.768160 *   0.00000    1.000000    
     46 C     c    0.892950 *  0.519810 *  0.081840 *   0.00000    1.000000    
     47 C     c    0.799970 *  0.863030 *  0.155410 *   0.00000    1.000000    
     48 C     c    0.985830 *  0.222020 *  0.949250 *   0.00000    1.000000    
     49 C     c    0.775600 *  0.805370 *  0.350130 *   0.00000    1.000000    
     50 C     c    0.821570 *  0.700470 *  0.025360 *   0.00000    1.000000    
     51 C     c    0.158980 *  0.041530 *  0.607950 *   0.00000    1.000000    
     52 C     c    0.476040 *  0.263670 *  0.276630 *   0.00000    1.000000    
     53 C     c    0.434680 *  0.399100 *  0.122780 *   0.00000    1.000000    
     54 C     c    0.365660 *  0.086630 *  0.294640 *   0.00000    1.000000    
     55 C     c    0.624160 *  0.266270 *  0.391700 *   0.00000    1.000000    
     56 C     c    0.422290 *  0.211340 *  0.832230 *   0.00000    1.000000    
     57 C     c    0.643820 *  0.455720 *  0.850330 *   0.00000    1.000000    
     58 C     c    0.737120 *  0.967710 *  0.602660 *   0.00000    1.000000    
     59 C     c    0.099210 *  0.802470 *  0.043610 *   0.00000    1.000000    
     60 C     c    0.617730 *  0.536110 *  0.254430 *   0.00000    1.000000    
     61 C     c    0.572990 *  0.809180 *  0.390000 *   0.00000    1.000000    
     62 C     c    0.027000 *  0.208410 *  0.602340 *   0.00000    1.000000    
     63 C     c    0.640770 *  0.641500 *  0.932270 *   0.00000    1.000000    
     64 C     c    0.588560 *  0.824650 *  0.852350 *   0.00000    1.000000    
--------------------------------------------------------------------------------


  Constraints : 

--------------------------------------------------------------------------------
  Constraint no.      Unconstrained     Constrained    Coefficient    Offset
                         Variable         Variable
--------------------------------------------------------------------------------
           1              Strain 1        Strain 2       1.00000      0.0000
           2              Strain 1        Strain 3       1.00000      0.0000
--------------------------------------------------------------------------------


********************************************************************************
*  General input information                                                   *
********************************************************************************

  Species output for all configurations : 

--------------------------------------------------------------------------------
  Species    Type    Atomic    Atomic    Charge       Radii (Angs)     Library
                     Number     Mass       (e)     Cova   Ionic  VDW   Symbol
--------------------------------------------------------------------------------
    C        Core        6      12.01   0.000000   0.770  0.000  1.530          
--------------------------------------------------------------------------------


  Lattice summation method               =    Ewald          (3-D)
                                         =    Parry          (2-D)
                                         =    Saunders et al (1-D)
  Accuracy factor for lattice sums       =   12.000


  Analytic derivatives to be used

  Time limit = Infinity

  Maximum range for interatomic potentials =    100000.000000 Angstroms

  Brenner et al 2002 potential to be used with explicit splines for P


********************************************************************************
*  Output for configuration   1                                                *
********************************************************************************


  Components of energy : 

--------------------------------------------------------------------------------
  Interatomic potentials     =           0.00000000 eV    
  Brenner potentials         =        -428.43598087 eV    
  Monopole - monopole (real) =           0.00000000 eV    
  Monopole - monopole (recip)=           0.00000000 eV    
  Monopole - monopole (total)=           0.00000000 eV    
--------------------------------------------------------------------------------
  Total lattice energy       =        -428.43598087 eV    
--------------------------------------------------------------------------------
  Total lattice energy       =          -41337.5229 kJ/(mole unit cells)
--------------------------------------------------------------------------------


  Number of variables =      189

  Maximum number of calculations  =          2000
  Maximum Hessian update interval =            10
  Maximum step size               =   1.000000000
  Maximum parameter tolerance     =   0.000010000
  Maximum function  tolerance     =   0.000010000
  Maximum gradient  tolerance     =   0.001000000
  Maximum gradient  component     =   0.010000000

  Symmetry not applied to optimisation

  Conjugate gradient optimiser to be used

  Lower half triangular hessian to be used

  Start of bulk optimisation :

  Cycle:      0 Energy:      -428.435981  Gnorm:      0.070155  CPU:    0.013
  Cycle:      1 Energy:      -428.440724  Gnorm:      0.022688  CPU:    0.020
  Cycle:      2 Energy:      -428.441532  Gnorm:      0.022310  CPU:    0.035
  Cycle:      3 Energy:      -428.442441  Gnorm:      0.014550  CPU:    0.055
  Cycle:      4 Energy:      -428.443004  Gnorm:      0.016821  CPU:    0.064
  Cycle:      5 Energy:      -428.443715  Gnorm:      0.012787  CPU:    0.070
  Cycle:      6 Energy:      -428.444024  Gnorm:      0.010922  CPU:    0.075
  Cycle:      7 Energy:      -428.444383  Gnorm:      0.010899  CPU:    0.101
  Cycle:      8 Energy:      -428.444639  Gnorm:      0.009313  CPU:    0.111
  Cycle:      9 Energy:      -428.444814  Gnorm:      0.007315  CPU:    0.118
  Cycle:     10 Energy:      -428.444893  Gnorm:      0.004294  CPU:    0.123
  Cycle:     11 Energy:      -428.444987  Gnorm:      0.005613  CPU:    0.149
  Cycle:     12 Energy:      -428.445043  Gnorm:      0.003645  CPU:    0.160
  Cycle:     13 Energy:      -428.445110  Gnorm:      0.004244  CPU:    0.167
  Cycle:     14 Energy:      -428.445150  Gnorm:      0.003690  CPU:    0.173
  Cycle:     15 Energy:      -428.445202  Gnorm:      0.003179  CPU:    0.198
  Cycle:     16 Energy:      -428.445236  Gnorm:      0.003531  CPU:    0.208
  Cycle:     17 Energy:      -428.445286  Gnorm:      0.002936  CPU:    0.216
  Cycle:     18 Energy:      -428.445300  Gnorm:      0.002144  CPU:    0.224
  Cycle:     19 Energy:      -428.445315  Gnorm:      0.001470  CPU:    0.248
  Cycle:     20 Energy:      -428.445322  Gnorm:      0.001602  CPU:    0.256
  Cycle:     21 Energy:      -428.445326  Gnorm:      0.001297  CPU:    0.263
  Cycle:     22 Energy:      -428.445328  Gnorm:      0.000946  CPU:    0.278
  Cycle:     23 Energy:      -428.445330  Gnorm:      0.001724  CPU:    0.296
  Cycle:     24 Energy:      -428.445330  Gnorm:      0.001854  CPU:    0.304
  Cycle:     25 Energy:      -428.445332  Gnorm:      0.001369  CPU:    0.310
  Cycle:     26 Energy:      -428.445332  Gnorm:      0.001219  CPU:    0.334
  Cycle:     27 Energy:      -428.445333  Gnorm:      0.001067  CPU:    0.344
  Cycle:     28 Energy:      -428.445333  Gnorm:      0.000954  CPU:    0.351
  Cycle:     29 Energy:      -428.445333  Gnorm:      0.000864  CPU:    0.356
  Cycle:     30 Energy:      -428.445333  Gnorm:      0.000844  CPU:    0.382
  Cycle:     31 Energy:      -428.445333  Gnorm:      0.000826  CPU:    0.391
  Cycle:     32 Energy:      -428.445333  Gnorm:      0.000822  CPU:    0.397
  Cycle:     33 Energy:      -428.445333  Gnorm:      0.000821  CPU:    0.403
  Cycle:     34 Energy:      -428.445335  Gnorm:      0.000798  CPU:    0.434
  Cycle:     35 Energy:      -428.445338  Gnorm:      0.001126  CPU:    0.443
  Cycle:     36 Energy:      -428.445347  Gnorm:      0.001999  CPU:    0.468
  Cycle:     37 Energy:      -428.445355  Gnorm:      0.001239  CPU:    0.478
  Cycle:     38 Energy:      -428.445358  Gnorm:      0.000813  CPU:    0.485
  Cycle:     39 Energy:      -428.445360  Gnorm:      0.000771  CPU:    0.494
  Cycle:     40 Energy:      -428.445360  Gnorm:      0.000497  CPU:    0.518
  Cycle:     41 Energy:      -428.445361  Gnorm:      0.000422  CPU:    0.526
  Cycle:     42 Energy:      -428.445362  Gnorm:      0.000418  CPU:    0.533
  Cycle:     43 Energy:      -428.445364  Gnorm:      0.001127  CPU:    0.560
  Cycle:     44 Energy:      -428.445371  Gnorm:      0.000816  CPU:    0.572
  Cycle:     45 Energy:      -428.445372  Gnorm:      0.000678  CPU:    0.578
  Cycle:     46 Energy:      -428.445375  Gnorm:      0.001273  CPU:    0.603
  Cycle:     47 Energy:      -428.445376  Gnorm:      0.000693  CPU:    0.614
  Cycle:     48 Energy:      -428.445377  Gnorm:      0.000436  CPU:    0.621
  Cycle:     49 Energy:      -428.445377  Gnorm:      0.000388  CPU:    0.627
  Cycle:     50 Energy:      -428.445377  Gnorm:      0.000362  CPU:    0.650
  Cycle:     51 Energy:      -428.445377  Gnorm:      0.000367  CPU:    0.660
  Cycle:     52 Energy:      -428.445377  Gnorm:      0.000369  CPU:    0.667
  Cycle:     53 Energy:      -428.445378  Gnorm:      0.000406  CPU:    0.695
  Cycle:     54 Energy:      -428.445380  Gnorm:      0.000489  CPU:    0.704
  Cycle:     55 Energy:      -428.445380  Gnorm:      0.000310  CPU:    0.711
  Cycle:     56 Energy:      -428.445380  Gnorm:      0.000272  CPU:    0.716
  Cycle:     57 Energy:      -428.445380  Gnorm:      0.000265  CPU:    0.741
  Cycle:     58 Energy:      -428.445380  Gnorm:      0.000264  CPU:    0.750
  Cycle:     59 Energy:      -428.445381  Gnorm:      0.000410  CPU:    0.762
  Cycle:     60 Energy:      -428.445382  Gnorm:      0.000793  CPU:    0.787
  Cycle:     61 Energy:      -428.445382  Gnorm:      0.001092  CPU:    0.795
  Cycle:     62 Energy:      -428.445382  Gnorm:      0.000425  CPU:    0.802
  Cycle:     63 Energy:      -428.445382  Gnorm:      0.000408  CPU:    0.831
  Cycle:     64 Energy:      -428.445382  Gnorm:      0.000407  CPU:    0.840
  Cycle:     65 Energy:      -428.445382  Gnorm:      0.000407  CPU:    0.858


  **** Optimisation achieved ****


  Final energy =    -428.44538247 eV
  Final Gnorm  =       0.00040659

  Components of energy : 

--------------------------------------------------------------------------------
  Interatomic potentials     =           0.00000000 eV    
  Brenner potentials         =        -428.44538247 eV    
  Monopole - monopole (real) =           0.00000000 eV    
  Monopole - monopole (recip)=           0.00000000 eV    
  Monopole - monopole (total)=           0.00000000 eV    
--------------------------------------------------------------------------------
  Total lattice energy       =        -428.44538247 eV    
--------------------------------------------------------------------------------
  Total lattice energy       =          -41338.4300 kJ/(mole unit cells)
--------------------------------------------------------------------------------

  Final fractional coordinates of atoms :

--------------------------------------------------------------------------------
   No.  Atomic        x           y          z          Radius
        Label       (Frac)      (Frac)     (Frac)       (Angs) 
--------------------------------------------------------------------------------
     1  C     c     0.025100    0.587150    0.365320    0.000000
     2  C     c     0.262265    0.102289    0.108139    0.000000
     3  C     c     0.100172    0.438099    0.267939    0.000000
     4  C     c     0.878851    0.966590    0.452845    0.000000
     5  C     c     0.476797    0.917684    0.988559    0.000000
     6  C     c     0.787278    0.446731    0.219732    0.000000
     7  C     c     0.923767    0.638175    0.716838    0.000000
     8  C     c     0.810044    0.555204    0.590402    0.000000
     9  C     c     0.131550    0.379865    0.638289    0.000000
    10  C     c     0.403992    0.764672    0.117518    0.000000
    11  C     c     0.889958    0.257508    0.746753    0.000000
    12  C     c     0.569255    0.901688    0.557430    0.000000
    13  C     c     0.425681    0.240775    0.632494    0.000000
    14  C     c     0.199399    0.983985    0.798848    0.000000
    15  C     c     0.523395    0.608633    0.406817    0.000000
    16  C     c     0.987489    0.938236    0.121758    0.000000
    17  C     c     0.133745    0.821635    0.858199    0.000000
    18  C     c     0.347251    0.690425    0.662224    0.000000
    19  C     c     0.738325    0.384518    0.683440    0.000000
    20  C     c     0.047141    0.257518    0.266682    0.000000
    21  C     c     0.936030    0.172922    0.419763    0.000000
    22  C     c     0.843137    0.616123    0.414824    0.000000
    23  C     c     0.477843    0.819677    0.690025    0.000000
    24  C     c     0.794060    0.296110    0.326972    0.000000
    25  C     c     0.669579    0.161735    0.017954    0.000000
    26  C     c     0.520431    0.604758    0.088138    0.000000
    27  C     c     0.606270    0.280415    0.571484    0.000000
    28  C     c     0.633507    0.989983    0.119300    0.000000
    29  C     c     0.478651    0.916089    0.251608    0.000000
    30  C     c     0.339177    0.056863    0.923041    0.000000
    31  C     c     0.810444    0.113509    0.884558    0.000000
    32  C     c     0.869137    0.768382    0.838218    0.000000
    33  C     c     0.307385    0.395162    0.575261    0.000000
    34  C     c     0.226283    0.686804    0.123362    0.000000
    35  C     c     0.071675    0.509561    0.779365    0.000000
    36  C     c     0.326251    0.101724    0.509903    0.000000
    37  C     c     0.122701    0.740839    0.423798    0.000000
    38  C     c     0.542491    0.315134    0.957244    0.000000
    39  C     c     0.063709    0.130974    0.109505    0.000000
    40  C     c     0.769695    0.942653    0.797001    0.000000
    41  C     c     0.392702    0.558326    0.533988    0.000000
    42  C     c     0.068218    0.896193    0.498971    0.000000
    43  C     c     0.002502    0.428681    0.954944    0.000000
    44  C     c     0.238336    0.500251    0.155853    0.000000
    45  C     c     0.194955    0.672264    0.767831    0.000000
    46  C     c     0.893685    0.519964    0.081887    0.000000
    47  C     c     0.799509    0.863422    0.155773    0.000000
    48  C     c     0.986540    0.221756    0.949523    0.000000
    49  C     c     0.775386    0.805470    0.350338    0.000000
    50  C     c     0.822141    0.700805    0.025418    0.000000
    51  C     c     0.158851    0.041415    0.608139    0.000000
    52  C     c     0.475453    0.263671    0.276719    0.000000
    53  C     c     0.434110    0.399071    0.122816    0.000000
    54  C     c     0.365168    0.086535    0.295416    0.000000
    55  C     c     0.624043    0.265982    0.391517    0.000000
    56  C     c     0.422073    0.211685    0.832300    0.000000
    57  C     c     0.643782    0.456050    0.850339    0.000000
    58  C     c     0.736835    0.968641    0.602753    0.000000
    59  C     c     0.098481    0.802154    0.043757    0.000000
    60  C     c     0.618020    0.536067    0.254359    0.000000
    61  C     c     0.572741    0.809496    0.390278    0.000000
    62  C     c     0.026902    0.207977    0.602165    0.000000
    63  C     c     0.641176    0.642035    0.932102    0.000000
    64  C     c     0.588676    0.825079    0.852220    0.000000
--------------------------------------------------------------------------------

  Final internal derivatives :

--------------------------------------------------------------------------------
   No.  Atomic          a             b             c           Radius
        Label          (eV)          (eV)          (eV)        (eV/Angs)
--------------------------------------------------------------------------------
      1 C     c       0.000000      0.000000      0.000000      0.000000
      2 C     c       0.002934     -0.003740     -0.003218      0.000000
      3 C     c       0.001055     -0.001213      0.000096      0.000000
      4 C     c      -0.001383     -0.003139     -0.001616      0.000000
      5 C     c       0.001593     -0.002483      0.002957      0.000000
      6 C     c      -0.004376     -0.023437     -0.010566      0.000000
      7 C     c      -0.007376     -0.003960      0.001335      0.000000
      8 C     c      -0.006042     -0.011088     -0.004594      0.000000
      9 C     c       0.001138     -0.001064     -0.004062      0.000000
     10 C     c      -0.002045     -0.004839     -0.002723      0.000000
     11 C     c      -0.001140     -0.005382     -0.002725      0.000000
     12 C     c       0.001848     -0.002686     -0.000942      0.000000
     13 C     c       0.004942     -0.002950     -0.002054      0.000000
     14 C     c      -0.000080     -0.008171     -0.001764      0.000000
     15 C     c       0.001205     -0.004510     -0.002631      0.000000
     16 C     c       0.005151     -0.003726     -0.002598      0.000000
     17 C     c       0.006867     -0.003699     -0.003676      0.000000
     18 C     c       0.004812     -0.008478     -0.001913      0.000000
     19 C     c       0.002645     -0.005083     -0.004182      0.000000
     20 C     c      -0.019752      0.000129      0.007170      0.000000
     21 C     c       0.002084     -0.001488     -0.005158      0.000000
     22 C     c       0.006326      0.010737      0.010486      0.000000
     23 C     c       0.003304     -0.004046     -0.000488      0.000000
     24 C     c       0.013324     -0.007167     -0.009335      0.000000
     25 C     c      -0.001090     -0.004712     -0.000319      0.000000
     26 C     c       0.000682     -0.009273     -0.001632      0.000000
     27 C     c      -0.011989     -0.011917     -0.006866      0.000000
     28 C     c       0.002080     -0.002633     -0.002448      0.000000
     29 C     c       0.001773     -0.004500     -0.007221      0.000000
     30 C     c       0.002493     -0.004486     -0.001254      0.000000
     31 C     c       0.004215     -0.002360     -0.004040      0.000000
     32 C     c      -0.007770     -0.011246     -0.006940      0.000000
     33 C     c      -0.000735     -0.006993     -0.002057      0.000000
     34 C     c       0.011896     -0.004416      0.002458      0.000000
     35 C     c      -0.000978     -0.001762     -0.005401      0.000000
     36 C     c      -0.000936     -0.006380     -0.003184      0.000000
     37 C     c      -0.000753      0.011921      0.005504      0.000000
     38 C     c       0.001205     -0.003810     -0.002641      0.000000
     39 C     c       0.000912     -0.002085     -0.005567      0.000000
     40 C     c      -0.000693     -0.003012     -0.001291      0.000000
     41 C     c       0.003944      0.000224     -0.001277      0.000000
     42 C     c       0.002209     -0.016601     -0.007207      0.000000
     43 C     c       0.001473     -0.001441     -0.001816      0.000000
     44 C     c       0.000181     -0.001586      0.001531      0.000000
     45 C     c       0.004115     -0.005714      0.003933      0.000000
     46 C     c       0.002532     -0.000638     -0.003160      0.000000
     47 C     c       0.001891     -0.004209     -0.001968      0.000000
     48 C     c       0.001556     -0.003287     -0.001371      0.000000
     49 C     c       0.000982     -0.002942     -0.001959      0.000000
     50 C     c       0.001563     -0.005161      0.002341      0.000000
     51 C     c       0.002933     -0.000602      0.000204      0.000000
     52 C     c      -0.009651     -0.008473     -0.008865      0.000000
     53 C     c      -0.007498     -0.008284     -0.009857      0.000000
     54 C     c       0.000682     -0.003997     -0.004694      0.000000
     55 C     c       0.021476     -0.002806      0.003198      0.000000
     56 C     c       0.000180     -0.003941     -0.003480      0.000000
     57 C     c       0.000450     -0.004176     -0.003867      0.000000
     58 C     c      -0.000540     -0.002050     -0.003936      0.000000
     59 C     c      -0.003635      0.003197      0.001771      0.000000
     60 C     c       0.010420      0.003600      0.003936      0.000000
     61 C     c       0.001076     -0.003983     -0.002485      0.000000
     62 C     c       0.001472     -0.002702     -0.001701      0.000000
     63 C     c       0.003399     -0.004415     -0.004903      0.000000
     64 C     c       0.003030     -0.004934     -0.005459      0.000000
--------------------------------------------------------------------------------
  Maximum abs         0.021476      0.023437      0.010566      0.000000
--------------------------------------------------------------------------------


  Time to end of optimisation =       0.8801 seconds


  Peak dynamic memory used =       1.98 MB 


  Timing analysis for GULP :

--------------------------------------------------------------------------------
  Task / Subroutine                                          Time (Seconds)
--------------------------------------------------------------------------------
  Calculation of Brenner energy and derivatives                   0.8616
--------------------------------------------------------------------------------
  Total CPU time                                                  0.8801
--------------------------------------------------------------------------------


  CIF file written as opti_0.9800.cif


  Job Finished at 23:34.09 10th August     2020                               

