********************************************************************************
*                       GENERAL UTILITY LATTICE PROGRAM                        *
*                                 Julian Gale                                  *
*                       Curtin Institute for Computation                       *
*                    School of Molecular and Life Sciences                     *
*                    Curtin University, Western Australia                      *
********************************************************************************
* Version = 5.2.0 * Last modified =  17th December 2019                        *
********************************************************************************
*  optimise     - perform optimisation run                                     *
*  conv         - constant volume calculation                                  *
*  isotropic    - only isotropic cell expansion to be allowed                  *
*  lbfgs        - use limited memory BFGS update                               *
********************************************************************************
* ASE calculation                                                              *
********************************************************************************


  Job Started  at 14:08.32 31st July       2020                               

  Number of CPUs =     1


  Total number of configurations input =      1

********************************************************************************
*  Input for Configuration =   1                                               *
********************************************************************************

  Formula = C64                                                         

  Number of irreducible atoms/shells =      64


  Total number atoms/shells =      64

  Dimensionality = 3               :  Bulk   



  Cartesian lattice vectors (Angstroms) :

        7.479658    0.000000    0.000000
        0.000000    7.479658    0.000000
        0.000000    0.000000    7.479658

  Cell parameters (Angstroms/Degrees):

  a =       7.4797    alpha =  90.0000
  b =       7.4797    beta  =  90.0000
  c =       7.4797    gamma =  90.0000

  Initial cell volume =         418.451590 Angs**3

  Temperature of configuration =   0.00     K 

  Pressure of configuration =         0.000 GPa 

  Fractional coordinates of asymmetric unit :

--------------------------------------------------------------------------------
   No.  Atomic       x           y          z         Charge      Occupancy
        Label      (Frac)      (Frac)     (Frac)        (e)         (Frac)  
--------------------------------------------------------------------------------
      1 C     c    0.035780    0.526170    0.339890     0.00000    1.000000    
      2 C     c    0.229590 *  0.062470 *  0.070680 *   0.00000    1.000000    
      3 C     c    0.086740 *  0.372580 *  0.241540 *   0.00000    1.000000    
      4 C     c    0.849890 *  0.908360 *  0.422460 *   0.00000    1.000000    
      5 C     c    0.441280 *  0.873720 *  0.947590 *   0.00000    1.000000    
      6 C     c    0.787440 *  0.429530 *  0.218620 *   0.00000    1.000000    
      7 C     c    0.901960 *  0.595110 *  0.684440 *   0.00000    1.000000    
      8 C     c    0.792250 *  0.510990 *  0.553950 *   0.00000    1.000000    
      9 C     c    0.109330 *  0.341370 *  0.597450 *   0.00000    1.000000    
     10 C     c    0.368560 *  0.720100 *  0.087270 *   0.00000    1.000000    
     11 C     c    0.859240 *  0.209770 *  0.708270 *   0.00000    1.000000    
     12 C     c    0.544100 *  0.861310 *  0.508880 *   0.00000    1.000000    
     13 C     c    0.399810 *  0.199970 *  0.585870 *   0.00000    1.000000    
     14 C     c    0.169580 *  0.946440 *  0.765170 *   0.00000    1.000000    
     15 C     c    0.498500 *  0.562480 *  0.365890 *   0.00000    1.000000    
     16 C     c    0.950810 *  0.898420 *  0.079280 *   0.00000    1.000000    
     17 C     c    0.116990 *  0.779030 *  0.831300 *   0.00000    1.000000    
     18 C     c    0.273570 *  0.686230 *  0.563680 *   0.00000    1.000000    
     19 C     c    0.707320 *  0.344640 *  0.642410 *   0.00000    1.000000    
     20 C     c    0.019610 *  0.197340 *  0.239350 *   0.00000    1.000000    
     21 C     c    0.914960 *  0.113770 *  0.392490 *   0.00000    1.000000    
     22 C     c    0.837630 *  0.564860 *  0.366020 *   0.00000    1.000000    
     23 C     c    0.432980 *  0.789650 *  0.634100 *   0.00000    1.000000    
     24 C     c    0.769260 *  0.240060 *  0.292990 *   0.00000    1.000000    
     25 C     c    0.643930 *  0.119910 *  0.979490 *   0.00000    1.000000    
     26 C     c    0.485730 *  0.554490 *  0.047940 *   0.00000    1.000000    
     27 C     c    0.577200 *  0.241410 *  0.526410 *   0.00000    1.000000    
     28 C     c    0.601420 *  0.945080 *  0.073870 *   0.00000    1.000000    
     29 C     c    0.456300 *  0.873520 *  0.209870 *   0.00000    1.000000    
     30 C     c    0.305050 *  0.022220 *  0.885080 *   0.00000    1.000000    
     31 C     c    0.783880 *  0.070020 *  0.850190 *   0.00000    1.000000    
     32 C     c    0.845150 *  0.726130 *  0.803670 *   0.00000    1.000000    
     33 C     c    0.277250 *  0.359650 *  0.526010 *   0.00000    1.000000    
     34 C     c    0.192240 *  0.651360 *  0.147020 *   0.00000    1.000000    
     35 C     c    0.059800 *  0.466190 *  0.745160 *   0.00000    1.000000    
     36 C     c    0.299400 *  0.059080 *  0.468830 *   0.00000    1.000000    
     37 C     c    0.158120 *  0.690640 *  0.365300 *   0.00000    1.000000    
     38 C     c    0.510810 *  0.270950 *  0.909310 *   0.00000    1.000000    
     39 C     c    0.030260 *  0.084690 *  0.074760 *   0.00000    1.000000    
     40 C     c    0.731350 *  0.898160 *  0.760240 *   0.00000    1.000000    
     41 C     c    0.354530 *  0.518850 *  0.467700 *   0.00000    1.000000    
     42 C     c    0.050530 *  0.856680 *  0.457030 *   0.00000    1.000000    
     43 C     c    0.032710 *  0.391020 *  0.935900 *   0.00000    1.000000    
     44 C     c    0.198350 *  0.432400 *  0.080030 *   0.00000    1.000000    
     45 C     c    0.156630 *  0.641120 *  0.718440 *   0.00000    1.000000    
     46 C     c    0.878180 *  0.482020 *  0.050850 *   0.00000    1.000000    
     47 C     c    0.770670 *  0.816050 *  0.111880 *   0.00000    1.000000    
     48 C     c    0.956570 *  0.195360 *  0.913820 *   0.00000    1.000000    
     49 C     c    0.760580 *  0.757830 *  0.309070 *   0.00000    1.000000    
     50 C     c    0.784460 *  0.652370 *  0.979350 *   0.00000    1.000000    
     51 C     c    0.134860 *  0.001610 *  0.567360 *   0.00000    1.000000    
     52 C     c    0.449340 *  0.221950 *  0.230520 *   0.00000    1.000000    
     53 C     c    0.398790 *  0.353120 *  0.068820 *   0.00000    1.000000    
     54 C     c    0.340680 *  0.047910 *  0.256940 *   0.00000    1.000000    
     55 C     c    0.598360 *  0.221420 *  0.346800 *   0.00000    1.000000    
     56 C     c    0.391290 *  0.170980 *  0.786620 *   0.00000    1.000000    
     57 C     c    0.608190 *  0.415170 *  0.804460 *   0.00000    1.000000    
     58 C     c    0.706980 *  0.925380 *  0.564050 *   0.00000    1.000000    
     59 C     c    0.070550 *  0.762920 *  0.012520 *   0.00000    1.000000    
     60 C     c    0.578950 *  0.471410 *  0.218930 *   0.00000    1.000000    
     61 C     c    0.558470 *  0.760510 *  0.348430 *   0.00000    1.000000    
     62 C     c    0.998680 *  0.176400 *  0.572620 *   0.00000    1.000000    
     63 C     c    0.602800 *  0.596610 *  0.896230 *   0.00000    1.000000    
     64 C     c    0.545760 *  0.785700 *  0.804830 *   0.00000    1.000000    
--------------------------------------------------------------------------------


  Constraints : 

--------------------------------------------------------------------------------
  Constraint no.      Unconstrained     Constrained    Coefficient    Offset
                         Variable         Variable
--------------------------------------------------------------------------------
           1              Strain 1        Strain 2       1.00000      0.0000
           2              Strain 1        Strain 3       1.00000      0.0000
--------------------------------------------------------------------------------


********************************************************************************
*  General input information                                                   *
********************************************************************************

  Species output for all configurations : 

--------------------------------------------------------------------------------
  Species    Type    Atomic    Atomic    Charge       Radii (Angs)     Library
                     Number     Mass       (e)     Cova   Ionic  VDW   Symbol
--------------------------------------------------------------------------------
    C        Core        6      12.01   0.000000   0.770  0.000  1.530          
--------------------------------------------------------------------------------


  Lattice summation method               =    Ewald          (3-D)
                                         =    Parry          (2-D)
                                         =    Saunders et al (1-D)
  Accuracy factor for lattice sums       =   12.000


  Analytic derivatives to be used

  Time limit = Infinity

  Maximum range for interatomic potentials =    100000.000000 Angstroms

  Brenner et al 2002 potential to be used with explicit splines for P


********************************************************************************
*  Output for configuration   1                                                *
********************************************************************************


  Components of energy : 

--------------------------------------------------------------------------------
  Interatomic potentials     =           0.00000000 eV    
  Brenner potentials         =        -421.51726004 eV    
  Monopole - monopole (real) =           0.00000000 eV    
  Monopole - monopole (recip)=           0.00000000 eV    
  Monopole - monopole (total)=           0.00000000 eV    
--------------------------------------------------------------------------------
  Total lattice energy       =        -421.51726004 eV    
--------------------------------------------------------------------------------
  Total lattice energy       =          -40669.9721 kJ/(mole unit cells)
--------------------------------------------------------------------------------


  Number of variables =      189

  Maximum number of calculations  =          2000
  Maximum Hessian update interval =            10
  Maximum step size               =   1.000000000
  Maximum parameter tolerance     =   0.000010000
  Maximum function  tolerance     =   0.000010000
  Maximum gradient  tolerance     =   0.001000000
  Maximum gradient  component     =   0.010000000

  Maximum LM gradient tolerance   =   0.900000000
  Symmetry not applied to optimisation

  Limited Memory BFGS to be used of order   10

  BFGS hessian update to be used

  Lower half triangular hessian to be used

  Start of bulk optimisation :

  Cycle:      0 Energy:      -421.517260  Gnorm:      0.632773  CPU:    0.028
  Cycle:      1 Energy:      -421.824751  Gnorm:      0.437510  CPU:    0.092
  Cycle:      2 Energy:      -422.327218  Gnorm:      0.256314  CPU:    0.102
  Cycle:      3 Energy:      -422.526332  Gnorm:      0.184478  CPU:    0.108
  Cycle:      4 Energy:      -422.639655  Gnorm:      0.214772  CPU:    0.132
  Cycle:      5 Energy:      -422.727528  Gnorm:      0.136140  CPU:    0.142
  Cycle:      6 Energy:      -422.773077  Gnorm:      0.106620  CPU:    0.148
  Cycle:      7 Energy:      -422.816414  Gnorm:      0.082323  CPU:    0.178
  Cycle:      8 Energy:      -422.854934  Gnorm:      0.078427  CPU:    0.212
  Cycle:      9 Energy:      -422.889216  Gnorm:      0.060330  CPU:    0.244
  Cycle:     10 Energy:      -422.912528  Gnorm:      0.054202  CPU:    0.261
  Cycle:     11 Energy:      -422.936828  Gnorm:      0.053492  CPU:    0.280
  Cycle:     12 Energy:      -422.955114  Gnorm:      0.055604  CPU:    0.287
  Cycle:     13 Energy:      -422.965761  Gnorm:      0.055275  CPU:    0.309
  Cycle:     14 Energy:      -422.974513  Gnorm:      0.033367  CPU:    0.320
  Cycle:     15 Energy:      -422.980619  Gnorm:      0.032555  CPU:    0.327
  Cycle:     16 Energy:      -422.990606  Gnorm:      0.050450  CPU:    0.350
  Cycle:     17 Energy:      -422.995569  Gnorm:      0.046518  CPU:    0.361
  Cycle:     18 Energy:      -423.000549  Gnorm:      0.020081  CPU:    0.368
  Cycle:     19 Energy:      -423.002740  Gnorm:      0.021497  CPU:    0.392
  Cycle:     20 Energy:      -423.004602  Gnorm:      0.023652  CPU:    0.402
  Cycle:     21 Energy:      -423.006377  Gnorm:      0.015940  CPU:    0.408
  Cycle:     22 Energy:      -423.007407  Gnorm:      0.015554  CPU:    0.433
  Cycle:     23 Energy:      -423.008273  Gnorm:      0.010658  CPU:    0.443
  Cycle:     24 Energy:      -423.009135  Gnorm:      0.011783  CPU:    0.449
  Cycle:     25 Energy:      -423.009594  Gnorm:      0.023031  CPU:    0.475
  Cycle:     26 Energy:      -423.010200  Gnorm:      0.009015  CPU:    0.484
  Cycle:     27 Energy:      -423.010537  Gnorm:      0.007640  CPU:    0.491
  Cycle:     28 Energy:      -423.011026  Gnorm:      0.009785  CPU:    0.516
  Cycle:     29 Energy:      -423.011971  Gnorm:      0.012052  CPU:    0.524
  Cycle:     30 Energy:      -423.012875  Gnorm:      0.021565  CPU:    0.535
  Cycle:     31 Energy:      -423.014200  Gnorm:      0.010581  CPU:    0.557
  Cycle:     32 Energy:      -423.014885  Gnorm:      0.008513  CPU:    0.565
  Cycle:     33 Energy:      -423.015491  Gnorm:      0.015171  CPU:    0.580
  Cycle:     34 Energy:      -423.016077  Gnorm:      0.015113  CPU:    0.598
  Cycle:     35 Energy:      -423.016758  Gnorm:      0.013251  CPU:    0.606
  Cycle:     36 Energy:      -423.017790  Gnorm:      0.021181  CPU:    0.623
  Cycle:     37 Energy:      -423.018465  Gnorm:      0.019747  CPU:    0.639
  Cycle:     38 Energy:      -423.018904  Gnorm:      0.010666  CPU:    0.646
  Cycle:     39 Energy:      -423.019499  Gnorm:      0.007034  CPU:    0.668
  Cycle:     40 Energy:      -423.020103  Gnorm:      0.010420  CPU:    0.680
  Cycle:     41 Energy:      -423.020912  Gnorm:      0.013109  CPU:    0.687
  Cycle:     42 Energy:      -423.021398  Gnorm:      0.014552  CPU:    0.716
  Cycle:     43 Energy:      -423.021992  Gnorm:      0.007521  CPU:    0.724
  Cycle:     44 Energy:      -423.022397  Gnorm:      0.007247  CPU:    0.736
  Cycle:     45 Energy:      -423.022886  Gnorm:      0.009325  CPU:    0.773
  Cycle:     46 Energy:      -423.023182  Gnorm:      0.012177  CPU:    0.789
  Cycle:     47 Energy:      -423.023503  Gnorm:      0.006189  CPU:    0.797
  Cycle:     48 Energy:      -423.023693  Gnorm:      0.004686  CPU:    0.821
  Cycle:     49 Energy:      -423.023867  Gnorm:      0.006034  CPU:    0.829
  Cycle:     50 Energy:      -423.024011  Gnorm:      0.003835  CPU:    0.841
  Cycle:     51 Energy:      -423.024098  Gnorm:      0.005319  CPU:    0.862
  Cycle:     52 Energy:      -423.024187  Gnorm:      0.004521  CPU:    0.870
  Cycle:     53 Energy:      -423.024238  Gnorm:      0.003445  CPU:    0.886
  Cycle:     54 Energy:      -423.024313  Gnorm:      0.002952  CPU:    0.904
  Cycle:     55 Energy:      -423.024335  Gnorm:      0.006207  CPU:    0.911
  Cycle:     56 Energy:      -423.024373  Gnorm:      0.002243  CPU:    0.930
  Cycle:     57 Energy:      -423.024391  Gnorm:      0.001917  CPU:    0.944
  Cycle:     58 Energy:      -423.024419  Gnorm:      0.002317  CPU:    0.952
  Cycle:     59 Energy:      -423.024466  Gnorm:      0.002616  CPU:    0.974
  Cycle:     60 Energy:      -423.024477  Gnorm:      0.002762  CPU:    0.989
  Cycle:     61 Energy:      -423.024507  Gnorm:      0.001568  CPU:    1.014
  Cycle:     62 Energy:      -423.024530  Gnorm:      0.001631  CPU:    1.023
  Cycle:     63 Energy:      -423.024546  Gnorm:      0.002523  CPU:    1.029
  Cycle:     64 Energy:      -423.024566  Gnorm:      0.002248  CPU:    1.055
  Cycle:     65 Energy:      -423.024585  Gnorm:      0.001648  CPU:    1.064
  Cycle:     66 Energy:      -423.024602  Gnorm:      0.001770  CPU:    1.090
  Cycle:     67 Energy:      -423.024632  Gnorm:      0.002002  CPU:    1.099
  Cycle:     68 Energy:      -423.024666  Gnorm:      0.002808  CPU:    1.106
  Cycle:     69 Energy:      -423.024683  Gnorm:      0.002369  CPU:    1.135
  Cycle:     70 Energy:      -423.024710  Gnorm:      0.002028  CPU:    1.142
  Cycle:     71 Energy:      -423.024768  Gnorm:      0.002529  CPU:    1.166
  Cycle:     72 Energy:      -423.024776  Gnorm:      0.006512  CPU:    1.176
  Cycle:     73 Energy:      -423.024850  Gnorm:      0.002240  CPU:    1.183
  Cycle:     74 Energy:      -423.024876  Gnorm:      0.002231  CPU:    1.208
  Cycle:     75 Energy:      -423.024931  Gnorm:      0.002603  CPU:    1.217
  Cycle:     76 Energy:      -423.024983  Gnorm:      0.006226  CPU:    1.224
  Cycle:     77 Energy:      -423.025030  Gnorm:      0.002102  CPU:    1.250
  Cycle:     78 Energy:      -423.025051  Gnorm:      0.001812  CPU:    1.277
  Cycle:     79 Energy:      -423.025088  Gnorm:      0.002089  CPU:    1.285
  Cycle:     80 Energy:      -423.025113  Gnorm:      0.004251  CPU:    1.299
  Cycle:     81 Energy:      -423.025156  Gnorm:      0.002186  CPU:    1.318
  Cycle:     82 Energy:      -423.025182  Gnorm:      0.001507  CPU:    1.325
  Cycle:     83 Energy:      -423.025200  Gnorm:      0.002416  CPU:    1.343
  Cycle:     84 Energy:      -423.025224  Gnorm:      0.002343  CPU:    1.359
  Cycle:     85 Energy:      -423.025241  Gnorm:      0.001795  CPU:    1.375
  Cycle:     86 Energy:      -423.025259  Gnorm:      0.002063  CPU:    1.394
  Cycle:     87 Energy:      -423.025275  Gnorm:      0.001778  CPU:    1.401
  Cycle:     88 Energy:      -423.025285  Gnorm:      0.001607  CPU:    1.427
  Cycle:     89 Energy:      -423.025303  Gnorm:      0.002357  CPU:    1.435
  Cycle:     90 Energy:      -423.025316  Gnorm:      0.003242  CPU:    1.461
  Cycle:     91 Energy:      -423.025325  Gnorm:      0.001520  CPU:    1.477
  Cycle:     92 Energy:      -423.025333  Gnorm:      0.000829  CPU:    1.495
  Cycle:     93 Energy:      -423.025341  Gnorm:      0.001253  CPU:    1.502
  Cycle:     94 Energy:      -423.025353  Gnorm:      0.001358  CPU:    1.527
  Cycle:     95 Energy:      -423.025383  Gnorm:      0.003687  CPU:    1.535
  Cycle:     96 Energy:      -423.025390  Gnorm:      0.001525  CPU:    1.549
  Cycle:     97 Energy:      -423.025394  Gnorm:      0.000962  CPU:    1.568
  Cycle:     98 Energy:      -423.025401  Gnorm:      0.001341  CPU:    1.591
  Cycle:     99 Energy:      -423.025407  Gnorm:      0.001913  CPU:    1.602
  Cycle:    100 Energy:      -423.025413  Gnorm:      0.001339  CPU:    1.608
  Cycle:    101 Energy:      -423.025428  Gnorm:      0.001173  CPU:    1.633
  Cycle:    102 Energy:      -423.025432  Gnorm:      0.001559  CPU:    1.642
  Cycle:    103 Energy:      -423.025443  Gnorm:      0.001189  CPU:    1.649
  Cycle:    104 Energy:      -423.025465  Gnorm:      0.001367  CPU:    1.674
  Cycle:    105 Energy:      -423.025466  Gnorm:      0.000981  CPU:    1.686
  Cycle:    106 Energy:      -423.025469  Gnorm:      0.000836  CPU:    1.706
  Cycle:    107 Energy:      -423.025474  Gnorm:      0.000919  CPU:    1.720
  Cycle:    108 Energy:      -423.025477  Gnorm:      0.001847  CPU:    1.727
  Cycle:    109 Energy:      -423.025494  Gnorm:      0.002309  CPU:    1.750
  Cycle:    110 Energy:      -423.025497  Gnorm:      0.000598  CPU:    1.779
  Cycle:    111 Energy:      -423.025499  Gnorm:      0.000517  CPU:    1.788
  Cycle:    112 Energy:      -423.025502  Gnorm:      0.000608  CPU:    1.795
  Cycle:    113 Energy:      -423.025503  Gnorm:      0.001459  CPU:    1.821
  Cycle:    114 Energy:      -423.025506  Gnorm:      0.000406  CPU:    1.829
  Cycle:    115 Energy:      -423.025506  Gnorm:      0.000288  CPU:    1.839
  Cycle:    116 Energy:      -423.025507  Gnorm:      0.000270  CPU:    1.862
  Cycle:    117 Energy:      -423.025507  Gnorm:      0.000270  CPU:    2.190
  Cycle:    118 Energy:      -423.025507  Gnorm:      0.000270  CPU:    2.569
  Cycle:    119 Energy:      -423.025507  Gnorm:      0.000270  CPU:    2.620
  Cycle:    120 Energy:      -423.025507  Gnorm:      0.000270  CPU:    3.240
  Cycle:    121 Energy:      -423.025507  Gnorm:      0.000269  CPU:    3.544
  Cycle:    122 Energy:      -423.025507  Gnorm:      0.000269  CPU:    4.122
  Cycle:    123 Energy:      -423.025507  Gnorm:      0.000269  CPU:    4.170
  Cycle:    124 Energy:      -423.025507  Gnorm:      0.000269  CPU:    4.230
  Cycle:    125 Energy:      -423.025507  Gnorm:      0.000267  CPU:    4.398
  Cycle:    126 Energy:      -423.025507  Gnorm:      0.000267  CPU:    4.448
  Cycle:    127 Energy:      -423.025507  Gnorm:      0.000267  CPU:    4.512


  **** Too many failed attempts to optimise ****

  Final energy =    -423.02550688 eV
  Final Gnorm  =       0.00025261

  Components of energy : 

--------------------------------------------------------------------------------
  Interatomic potentials     =           0.00000000 eV    
  Brenner potentials         =        -423.02550688 eV    
  Monopole - monopole (real) =           0.00000000 eV    
  Monopole - monopole (recip)=           0.00000000 eV    
  Monopole - monopole (total)=           0.00000000 eV    
--------------------------------------------------------------------------------
  Total lattice energy       =        -423.02550688 eV    
--------------------------------------------------------------------------------
  Total lattice energy       =          -40815.4949 kJ/(mole unit cells)
--------------------------------------------------------------------------------

  Final fractional coordinates of atoms :

--------------------------------------------------------------------------------
   No.  Atomic        x           y          z          Radius
        Label       (Frac)      (Frac)     (Frac)       (Angs) 
--------------------------------------------------------------------------------
     1  C     c     0.035780    0.526170    0.339890    0.000000
     2  C     c     0.239334    0.061647    0.071870    0.000000
     3  C     c     0.090079    0.374481    0.242462    0.000000
     4  C     c     0.857872    0.909595    0.414299    0.000000
     5  C     c     0.444790    0.865324    0.948734    0.000000
     6  C     c     0.785002    0.426837    0.210851    0.000000
     7  C     c     0.904879    0.587648    0.680838    0.000000
     8  C     c     0.792300    0.503083    0.550959    0.000000
     9  C     c     0.112481    0.330188    0.603752    0.000000
    10  C     c     0.368953    0.712261    0.087790    0.000000
    11  C     c     0.866128    0.208714    0.710593    0.000000
    12  C     c     0.545834    0.860324    0.510949    0.000000
    13  C     c     0.402664    0.189848    0.587825    0.000000
    14  C     c     0.170423    0.933573    0.770787    0.000000
    15  C     c     0.502893    0.560043    0.366290    0.000000
    16  C     c     0.956254    0.898720    0.083029    0.000000
    17  C     c     0.120382    0.767276    0.839577    0.000000
    18  C     c     0.280525    0.671256    0.570599    0.000000
    19  C     c     0.714372    0.333537    0.640443    0.000000
    20  C     c     0.029872    0.197708    0.239576    0.000000
    21  C     c     0.912771    0.117060    0.387910    0.000000
    22  C     c     0.834279    0.563434    0.361674    0.000000
    23  C     c     0.437429    0.782131    0.638822    0.000000
    24  C     c     0.772518    0.239380    0.281542    0.000000
    25  C     c     0.646954    0.115637    0.982703    0.000000
    26  C     c     0.482484    0.549335    0.045784    0.000000
    27  C     c     0.583251    0.229464    0.523024    0.000000
    28  C     c     0.605155    0.940345    0.076856    0.000000
    29  C     c     0.456518    0.864404    0.213654    0.000000
    30  C     c     0.312970    0.009977    0.886767    0.000000
    31  C     c     0.790866    0.065108    0.850286    0.000000
    32  C     c     0.849126    0.722978    0.797382    0.000000
    33  C     c     0.288385    0.348989    0.538655    0.000000
    34  C     c     0.188071    0.644532    0.155271    0.000000
    35  C     c     0.056661    0.458867    0.746285    0.000000
    36  C     c     0.305053    0.045141    0.475384    0.000000
    37  C     c     0.160311    0.689177    0.377752    0.000000
    38  C     c     0.517231    0.262244    0.911813    0.000000
    39  C     c     0.038200    0.084481    0.073107    0.000000
    40  C     c     0.741377    0.893642    0.758558    0.000000
    41  C     c     0.364891    0.507696    0.478613    0.000000
    42  C     c     0.048700    0.847671    0.461391    0.000000
    43  C     c     0.030494    0.388999    0.936607    0.000000
    44  C     c     0.199753    0.431110    0.075193    0.000000
    45  C     c     0.164139    0.629115    0.728200    0.000000
    46  C     c     0.878030    0.486081    0.043385    0.000000
    47  C     c     0.772278    0.814848    0.110261    0.000000
    48  C     c     0.966850    0.190200    0.914738    0.000000
    49  C     c     0.761945    0.755091    0.306638    0.000000
    50  C     c     0.787571    0.652720    0.977351    0.000000
    51  C     c     0.135781    0.990346    0.577127    0.000000
    52  C     c     0.443790    0.212903    0.228567    0.000000
    53  C     c     0.398772    0.342750    0.067975    0.000000
    54  C     c     0.339151    0.031422    0.262710    0.000000
    55  C     c     0.597981    0.216627    0.339839    0.000000
    56  C     c     0.400212    0.157084    0.787493    0.000000
    57  C     c     0.614802    0.405607    0.805153    0.000000
    58  C     c     0.713971    0.923337    0.563144    0.000000
    59  C     c     0.076504    0.761235    0.023550    0.000000
    60  C     c     0.579218    0.473500    0.213446    0.000000
    61  C     c     0.557968    0.757803    0.348738    0.000000
    62  C     c     0.004884    0.158179    0.568872    0.000000
    63  C     c     0.604886    0.590506    0.890092    0.000000
    64  C     c     0.551799    0.775398    0.805272    0.000000
--------------------------------------------------------------------------------

  Final internal derivatives :

--------------------------------------------------------------------------------
   No.  Atomic          a             b             c           Radius
        Label          (eV)          (eV)          (eV)        (eV/Angs)
--------------------------------------------------------------------------------
      1 C     c       0.000000      0.000000      0.000000      0.000000
      2 C     c      -0.003251     -0.002759     -0.001217      0.000000
      3 C     c      -0.000252     -0.002363     -0.002909      0.000000
      4 C     c      -0.003089     -0.003783     -0.003999      0.000000
      5 C     c      -0.003065      0.000183      0.006190      0.000000
      6 C     c      -0.000238     -0.007279      0.000896      0.000000
      7 C     c       0.011493     -0.001456      0.003609      0.000000
      8 C     c      -0.001523      0.002143      0.000134      0.000000
      9 C     c      -0.001568      0.001453      0.004903      0.000000
     10 C     c       0.002639      0.000710      0.001600      0.000000
     11 C     c       0.001468     -0.000114      0.003682      0.000000
     12 C     c      -0.004091     -0.001348      0.003894      0.000000
     13 C     c      -0.004905     -0.001247     -0.000573      0.000000
     14 C     c      -0.004577      0.004787      0.004599      0.000000
     15 C     c      -0.000439     -0.000642      0.004450      0.000000
     16 C     c      -0.003702      0.000913      0.002457      0.000000
     17 C     c      -0.003029      0.001629      0.001797      0.000000
     18 C     c       0.000581      0.001535      0.004820      0.000000
     19 C     c       0.000964     -0.002761      0.000842      0.000000
     20 C     c      -0.002957     -0.004229     -0.002854      0.000000
     21 C     c      -0.000129     -0.002181      0.003883      0.000000
     22 C     c      -0.000428     -0.000921      0.000815      0.000000
     23 C     c      -0.001668     -0.000823      0.005090      0.000000
     24 C     c       0.001219     -0.009108      0.000774      0.000000
     25 C     c      -0.002479     -0.000521      0.002959      0.000000
     26 C     c       0.001659      0.000590     -0.000893      0.000000
     27 C     c      -0.002179     -0.002534      0.001154      0.000000
     28 C     c      -0.002531     -0.002774      0.000038      0.000000
     29 C     c      -0.002849     -0.001919     -0.005416      0.000000
     30 C     c      -0.001917      0.001209      0.002685      0.000000
     31 C     c      -0.001727     -0.003465      0.002200      0.000000
     32 C     c       0.001578     -0.004425      0.002131      0.000000
     33 C     c      -0.001803      0.004301      0.004725      0.000000
     34 C     c       0.001426     -0.004958     -0.000437      0.000000
     35 C     c      -0.000997      0.001351     -0.000020      0.000000
     36 C     c      -0.003732     -0.002376      0.000361      0.000000
     37 C     c      -0.004677     -0.007193      0.010056      0.000000
     38 C     c      -0.006560      0.001227      0.004189      0.000000
     39 C     c      -0.001771     -0.005144     -0.003651      0.000000
     40 C     c      -0.004184     -0.003970      0.003543      0.000000
     41 C     c      -0.002086      0.003657      0.002654      0.000000
     42 C     c      -0.002858     -0.004147      0.005391      0.000000
     43 C     c      -0.003609      0.000215      0.000317      0.000000
     44 C     c      -0.002434      0.004787     -0.001622      0.000000
     45 C     c      -0.010698     -0.000984      0.000374      0.000000
     46 C     c      -0.004240     -0.003565      0.000246      0.000000
     47 C     c      -0.003235      0.000534     -0.005971      0.000000
     48 C     c       0.000257     -0.000503      0.001942      0.000000
     49 C     c      -0.004833     -0.000614     -0.002571      0.000000
     50 C     c      -0.004557     -0.003770     -0.000224      0.000000
     51 C     c      -0.004526      0.002481      0.000003      0.000000
     52 C     c      -0.002025     -0.001116      0.005503      0.000000
     53 C     c      -0.003521     -0.005584      0.005408      0.000000
     54 C     c      -0.002052      0.002700     -0.001534      0.000000
     55 C     c      -0.003353      0.001503      0.002307      0.000000
     56 C     c      -0.001048     -0.001442      0.002010      0.000000
     57 C     c      -0.006692     -0.001198     -0.000995      0.000000
     58 C     c      -0.002614     -0.002695      0.002842      0.000000
     59 C     c      -0.005791     -0.001982      0.003172      0.000000
     60 C     c      -0.006076     -0.003800      0.004992      0.000000
     61 C     c      -0.006128     -0.001454      0.003529      0.000000
     62 C     c      -0.000552      0.002106      0.003096      0.000000
     63 C     c      -0.000182     -0.006831      0.000350      0.000000
     64 C     c      -0.001069     -0.007030      0.005143      0.000000
--------------------------------------------------------------------------------
  Maximum abs         0.011493      0.009108      0.010056      0.000000
--------------------------------------------------------------------------------


  Time to end of optimisation =       4.6498 seconds


  Peak dynamic memory used =       2.01 MB 


  Timing analysis for GULP :

--------------------------------------------------------------------------------
  Task / Subroutine                                          Time (Seconds)
--------------------------------------------------------------------------------
  Calculation of Brenner energy and derivatives                   4.5700
--------------------------------------------------------------------------------
  Total CPU time                                                  4.6499
--------------------------------------------------------------------------------


  CIF file written as opti_0.9700.cif


  Job Finished at 14:08.37 31st July       2020                               

