********************************************************************************
*                       GENERAL UTILITY LATTICE PROGRAM                        *
*                                 Julian Gale                                  *
*                       Curtin Institute for Computation                       *
*                    School of Molecular and Life Sciences                     *
*                    Curtin University, Western Australia                      *
********************************************************************************
* Version = 5.2.0 * Last modified =  17th December 2019                        *
********************************************************************************
*  single       - perform a single point run                                   *
*  property     - calculate properties for final geometry                      *
*  phonon       - calculate phonons for final geometry                         *
********************************************************************************
* ASE calculation                                                              *
********************************************************************************


  Job Started  at 20:04.46 29th July       2020                               

  Number of CPUs =     1


  Total number of configurations input =      1

********************************************************************************
*  Input for Configuration =   1                                               *
********************************************************************************

  Formula = C64                                                         

  Number of irreducible atoms/shells =      64


  Total number atoms/shells =      64

  Dimensionality = 3               :  Bulk   



  Cartesian lattice vectors (Angstroms) :

        7.612400    0.000000    0.000000
        0.000000    7.612400    0.000000
        0.000000    0.000000    7.612400

  Cell parameters (Angstroms/Degrees):

  a =       7.6124    alpha =  90.0000
  b =       7.6124    beta  =  90.0000
  c =       7.6124    gamma =  90.0000

  Initial cell volume =         441.128180 Angs**3

  Shrinking factors =      8     8     8

  Temperature of configuration =   10.0     K 

  Pressure of configuration =         0.000 GPa 

  Fractional coordinates of asymmetric unit :

--------------------------------------------------------------------------------
   No.  Atomic       x           y          z         Charge      Occupancy
        Label      (Frac)      (Frac)     (Frac)        (e)         (Frac)  
--------------------------------------------------------------------------------
      1 C     c    0.476040    0.519880    0.065020     0.00000    1.000000    
      2 C     c    0.410560    0.738620    0.306320     0.00000    1.000000    
      3 C     c    0.290670    0.260340    0.910940     0.00000    1.000000    
      4 C     c    0.104780    0.008900    0.614800     0.00000    1.000000    
      5 C     c    0.960020    0.853720    0.881250     0.00000    1.000000    
      6 C     c    0.796280    0.475530    0.580990     0.00000    1.000000    
      7 C     c    0.615160    0.415030    0.679260     0.00000    1.000000    
      8 C     c    0.789810    0.713280    0.333050     0.00000    1.000000    
      9 C     c    0.884200    0.245740    0.326250     0.00000    1.000000    
     10 C     c    0.686780    0.159950    0.140690     0.00000    1.000000    
     11 C     c    0.871450    0.038270    0.359280     0.00000    1.000000    
     12 C     c    0.951090    0.931880    0.518900     0.00000    1.000000    
     13 C     c    0.516180    0.057860    0.149220     0.00000    1.000000    
     14 C     c    0.552180    0.979490    0.495810     0.00000    1.000000    
     15 C     c    0.469520    0.328910    0.001140     0.00000    1.000000    
     16 C     c    0.950520    0.350040    0.487020     0.00000    1.000000    
     17 C     c    0.160310    0.418340    0.830280     0.00000    1.000000    
     18 C     c    0.832910    0.732060    0.814650     0.00000    1.000000    
     19 C     c    0.914480    0.947760    0.036020     0.00000    1.000000    
     20 C     c    0.144620    0.914800    0.794130     0.00000    1.000000    
     21 C     c    0.872470    0.646070    0.655930     0.00000    1.000000    
     22 C     c    0.891220    0.123140    0.726720     0.00000    1.000000    
     23 C     c    0.500760    0.600260    0.413170     0.00000    1.000000    
     24 C     c    0.652730    0.703530    0.882520     0.00000    1.000000    
     25 C     c    0.641150    0.587020    0.027620     0.00000    1.000000    
     26 C     c    0.791040    0.973210    0.719530     0.00000    1.000000    
     27 C     c    0.471450    0.462980    0.576590     0.00000    1.000000    
     28 C     c    0.359580    0.640750    0.138740     0.00000    1.000000    
     29 C     c    0.592060    0.951960    0.690490     0.00000    1.000000    
     30 C     c    0.715810    0.339480    0.234080     0.00000    1.000000    
     31 C     c    0.008500    0.194620    0.155460     0.00000    1.000000    
     32 C     c    0.970880    0.394920    0.893580     0.00000    1.000000    
     33 C     c    0.505800    0.786280    0.783400     0.00000    1.000000    
     34 C     c    0.848610    0.135590    0.032900     0.00000    1.000000    
     35 C     c    0.354720    0.175150    0.711090     0.00000    1.000000    
     36 C     c    0.114730    0.477240    0.446220     0.00000    1.000000    
     37 C     c    0.183540    0.162720    0.081630     0.00000    1.000000    
     38 C     c    0.281980    0.398350    0.516710     0.00000    1.000000    
     39 C     c    0.103090    0.672450    0.419600     0.00000    1.000000    
     40 C     c    0.933950    0.498030    0.037400     0.00000    1.000000    
     41 C     c    0.834500    0.245000    0.870260     0.00000    1.000000    
     42 C     c    0.373440    0.212880    0.168380     0.00000    1.000000    
     43 C     c    0.395200    0.115980    0.507170     0.00000    1.000000    
     44 C     c    0.981280    0.711960    0.265630     0.00000    1.000000    
     45 C     c    0.395020    0.276520    0.366940     0.00000    1.000000    
     46 C     c    0.556310    0.398550    0.338260     0.00000    1.000000    
     47 C     c    0.309640    0.763200    0.781670     0.00000    1.000000    
     48 C     c    0.930150    0.899500    0.212120     0.00000    1.000000    
     49 C     c    0.768030    0.485180    0.108310     0.00000    1.000000    
     50 C     c    0.254930    0.803920    0.413740     0.00000    1.000000    
     51 C     c    0.707220    0.551080    0.407090     0.00000    1.000000    
     52 C     c    0.956650    0.748010    0.532470     0.00000    1.000000    
     53 C     c    0.231690    0.604750    0.861560     0.00000    1.000000    
     54 C     c    0.042080    0.617860    0.111740     0.00000    1.000000    
     55 C     c    0.626270    0.285910    0.845600     0.00000    1.000000    
     56 C     c    0.439290    0.011150    0.968450     0.00000    1.000000    
     57 C     c    0.520640    0.911980    0.285960     0.00000    1.000000    
     58 C     c    0.205680    0.645270    0.044000     0.00000    1.000000    
     59 C     c    0.036450    0.209600    0.612540     0.00000    1.000000    
     60 C     c    0.257400    0.961910    0.492270     0.00000    1.000000    
     61 C     c    0.715430    0.894500    0.368880     0.00000    1.000000    
     62 C     c    0.243170    0.005800    0.953730     0.00000    1.000000    
     63 C     c    0.517530    0.099750    0.808340     0.00000    1.000000    
     64 C     c    0.200380    0.302890    0.669450     0.00000    1.000000    
--------------------------------------------------------------------------------


  Brillouin zone sampling points :

--------------------------------------------------------------------------------
  Point number          x          y          z            Weight
--------------------------------------------------------------------------------
        1           0.062500   0.062500   0.062500     0.00390625
        2           0.062500   0.062500   0.187500     0.00390625
        3           0.062500   0.062500   0.312500     0.00390625
        4           0.062500   0.062500   0.437500     0.00390625
        5           0.062500   0.062500   0.562500     0.00390625
        6           0.062500   0.062500   0.687500     0.00390625
        7           0.062500   0.062500   0.812500     0.00390625
        8           0.062500   0.062500   0.937500     0.00390625
        9           0.062500   0.187500   0.062500     0.00390625
       10           0.062500   0.187500   0.187500     0.00390625
       11           0.062500   0.187500   0.312500     0.00390625
       12           0.062500   0.187500   0.437500     0.00390625
       13           0.062500   0.187500   0.562500     0.00390625
       14           0.062500   0.187500   0.687500     0.00390625
       15           0.062500   0.187500   0.812500     0.00390625
       16           0.062500   0.187500   0.937500     0.00390625
       17           0.062500   0.312500   0.062500     0.00390625
       18           0.062500   0.312500   0.187500     0.00390625
       19           0.062500   0.312500   0.312500     0.00390625
       20           0.062500   0.312500   0.437500     0.00390625
       21           0.062500   0.312500   0.562500     0.00390625
       22           0.062500   0.312500   0.687500     0.00390625
       23           0.062500   0.312500   0.812500     0.00390625
       24           0.062500   0.312500   0.937500     0.00390625
       25           0.062500   0.437500   0.062500     0.00390625
       26           0.062500   0.437500   0.187500     0.00390625
       27           0.062500   0.437500   0.312500     0.00390625
       28           0.062500   0.437500   0.437500     0.00390625
       29           0.062500   0.437500   0.562500     0.00390625
       30           0.062500   0.437500   0.687500     0.00390625
       31           0.062500   0.437500   0.812500     0.00390625
       32           0.062500   0.437500   0.937500     0.00390625
       33           0.062500   0.562500   0.062500     0.00390625
       34           0.062500   0.562500   0.187500     0.00390625
       35           0.062500   0.562500   0.312500     0.00390625
       36           0.062500   0.562500   0.437500     0.00390625
       37           0.062500   0.562500   0.562500     0.00390625
       38           0.062500   0.562500   0.687500     0.00390625
       39           0.062500   0.562500   0.812500     0.00390625
       40           0.062500   0.562500   0.937500     0.00390625
       41           0.062500   0.687500   0.062500     0.00390625
       42           0.062500   0.687500   0.187500     0.00390625
       43           0.062500   0.687500   0.312500     0.00390625
       44           0.062500   0.687500   0.437500     0.00390625
       45           0.062500   0.687500   0.562500     0.00390625
       46           0.062500   0.687500   0.687500     0.00390625
       47           0.062500   0.687500   0.812500     0.00390625
       48           0.062500   0.687500   0.937500     0.00390625
       49           0.062500   0.812500   0.062500     0.00390625
       50           0.062500   0.812500   0.187500     0.00390625
       51           0.062500   0.812500   0.312500     0.00390625
       52           0.062500   0.812500   0.437500     0.00390625
       53           0.062500   0.812500   0.562500     0.00390625
       54           0.062500   0.812500   0.687500     0.00390625
       55           0.062500   0.812500   0.812500     0.00390625
       56           0.062500   0.812500   0.937500     0.00390625
       57           0.062500   0.937500   0.062500     0.00390625
       58           0.062500   0.937500   0.187500     0.00390625
       59           0.062500   0.937500   0.312500     0.00390625
       60           0.062500   0.937500   0.437500     0.00390625
       61           0.062500   0.937500   0.562500     0.00390625
       62           0.062500   0.937500   0.687500     0.00390625
       63           0.062500   0.937500   0.812500     0.00390625
       64           0.062500   0.937500   0.937500     0.00390625
       65           0.187500   0.062500   0.062500     0.00390625
       66           0.187500   0.062500   0.187500     0.00390625
       67           0.187500   0.062500   0.312500     0.00390625
       68           0.187500   0.062500   0.437500     0.00390625
       69           0.187500   0.062500   0.562500     0.00390625
       70           0.187500   0.062500   0.687500     0.00390625
       71           0.187500   0.062500   0.812500     0.00390625
       72           0.187500   0.062500   0.937500     0.00390625
       73           0.187500   0.187500   0.062500     0.00390625
       74           0.187500   0.187500   0.187500     0.00390625
       75           0.187500   0.187500   0.312500     0.00390625
       76           0.187500   0.187500   0.437500     0.00390625
       77           0.187500   0.187500   0.562500     0.00390625
       78           0.187500   0.187500   0.687500     0.00390625
       79           0.187500   0.187500   0.812500     0.00390625
       80           0.187500   0.187500   0.937500     0.00390625
       81           0.187500   0.312500   0.062500     0.00390625
       82           0.187500   0.312500   0.187500     0.00390625
       83           0.187500   0.312500   0.312500     0.00390625
       84           0.187500   0.312500   0.437500     0.00390625
       85           0.187500   0.312500   0.562500     0.00390625
       86           0.187500   0.312500   0.687500     0.00390625
       87           0.187500   0.312500   0.812500     0.00390625
       88           0.187500   0.312500   0.937500     0.00390625
       89           0.187500   0.437500   0.062500     0.00390625
       90           0.187500   0.437500   0.187500     0.00390625
       91           0.187500   0.437500   0.312500     0.00390625
       92           0.187500   0.437500   0.437500     0.00390625
       93           0.187500   0.437500   0.562500     0.00390625
       94           0.187500   0.437500   0.687500     0.00390625
       95           0.187500   0.437500   0.812500     0.00390625
       96           0.187500   0.437500   0.937500     0.00390625
       97           0.187500   0.562500   0.062500     0.00390625
       98           0.187500   0.562500   0.187500     0.00390625
       99           0.187500   0.562500   0.312500     0.00390625
      100           0.187500   0.562500   0.437500     0.00390625
      101           0.187500   0.562500   0.562500     0.00390625
      102           0.187500   0.562500   0.687500     0.00390625
      103           0.187500   0.562500   0.812500     0.00390625
      104           0.187500   0.562500   0.937500     0.00390625
      105           0.187500   0.687500   0.062500     0.00390625
      106           0.187500   0.687500   0.187500     0.00390625
      107           0.187500   0.687500   0.312500     0.00390625
      108           0.187500   0.687500   0.437500     0.00390625
      109           0.187500   0.687500   0.562500     0.00390625
      110           0.187500   0.687500   0.687500     0.00390625
      111           0.187500   0.687500   0.812500     0.00390625
      112           0.187500   0.687500   0.937500     0.00390625
      113           0.187500   0.812500   0.062500     0.00390625
      114           0.187500   0.812500   0.187500     0.00390625
      115           0.187500   0.812500   0.312500     0.00390625
      116           0.187500   0.812500   0.437500     0.00390625
      117           0.187500   0.812500   0.562500     0.00390625
      118           0.187500   0.812500   0.687500     0.00390625
      119           0.187500   0.812500   0.812500     0.00390625
      120           0.187500   0.812500   0.937500     0.00390625
      121           0.187500   0.937500   0.062500     0.00390625
      122           0.187500   0.937500   0.187500     0.00390625
      123           0.187500   0.937500   0.312500     0.00390625
      124           0.187500   0.937500   0.437500     0.00390625
      125           0.187500   0.937500   0.562500     0.00390625
      126           0.187500   0.937500   0.687500     0.00390625
      127           0.187500   0.937500   0.812500     0.00390625
      128           0.187500   0.937500   0.937500     0.00390625
      129           0.312500   0.062500   0.062500     0.00390625
      130           0.312500   0.062500   0.187500     0.00390625
      131           0.312500   0.062500   0.312500     0.00390625
      132           0.312500   0.062500   0.437500     0.00390625
      133           0.312500   0.062500   0.562500     0.00390625
      134           0.312500   0.062500   0.687500     0.00390625
      135           0.312500   0.062500   0.812500     0.00390625
      136           0.312500   0.062500   0.937500     0.00390625
      137           0.312500   0.187500   0.062500     0.00390625
      138           0.312500   0.187500   0.187500     0.00390625
      139           0.312500   0.187500   0.312500     0.00390625
      140           0.312500   0.187500   0.437500     0.00390625
      141           0.312500   0.187500   0.562500     0.00390625
      142           0.312500   0.187500   0.687500     0.00390625
      143           0.312500   0.187500   0.812500     0.00390625
      144           0.312500   0.187500   0.937500     0.00390625
      145           0.312500   0.312500   0.062500     0.00390625
      146           0.312500   0.312500   0.187500     0.00390625
      147           0.312500   0.312500   0.312500     0.00390625
      148           0.312500   0.312500   0.437500     0.00390625
      149           0.312500   0.312500   0.562500     0.00390625
      150           0.312500   0.312500   0.687500     0.00390625
      151           0.312500   0.312500   0.812500     0.00390625
      152           0.312500   0.312500   0.937500     0.00390625
      153           0.312500   0.437500   0.062500     0.00390625
      154           0.312500   0.437500   0.187500     0.00390625
      155           0.312500   0.437500   0.312500     0.00390625
      156           0.312500   0.437500   0.437500     0.00390625
      157           0.312500   0.437500   0.562500     0.00390625
      158           0.312500   0.437500   0.687500     0.00390625
      159           0.312500   0.437500   0.812500     0.00390625
      160           0.312500   0.437500   0.937500     0.00390625
      161           0.312500   0.562500   0.062500     0.00390625
      162           0.312500   0.562500   0.187500     0.00390625
      163           0.312500   0.562500   0.312500     0.00390625
      164           0.312500   0.562500   0.437500     0.00390625
      165           0.312500   0.562500   0.562500     0.00390625
      166           0.312500   0.562500   0.687500     0.00390625
      167           0.312500   0.562500   0.812500     0.00390625
      168           0.312500   0.562500   0.937500     0.00390625
      169           0.312500   0.687500   0.062500     0.00390625
      170           0.312500   0.687500   0.187500     0.00390625
      171           0.312500   0.687500   0.312500     0.00390625
      172           0.312500   0.687500   0.437500     0.00390625
      173           0.312500   0.687500   0.562500     0.00390625
      174           0.312500   0.687500   0.687500     0.00390625
      175           0.312500   0.687500   0.812500     0.00390625
      176           0.312500   0.687500   0.937500     0.00390625
      177           0.312500   0.812500   0.062500     0.00390625
      178           0.312500   0.812500   0.187500     0.00390625
      179           0.312500   0.812500   0.312500     0.00390625
      180           0.312500   0.812500   0.437500     0.00390625
      181           0.312500   0.812500   0.562500     0.00390625
      182           0.312500   0.812500   0.687500     0.00390625
      183           0.312500   0.812500   0.812500     0.00390625
      184           0.312500   0.812500   0.937500     0.00390625
      185           0.312500   0.937500   0.062500     0.00390625
      186           0.312500   0.937500   0.187500     0.00390625
      187           0.312500   0.937500   0.312500     0.00390625
      188           0.312500   0.937500   0.437500     0.00390625
      189           0.312500   0.937500   0.562500     0.00390625
      190           0.312500   0.937500   0.687500     0.00390625
      191           0.312500   0.937500   0.812500     0.00390625
      192           0.312500   0.937500   0.937500     0.00390625
      193           0.437500   0.062500   0.062500     0.00390625
      194           0.437500   0.062500   0.187500     0.00390625
      195           0.437500   0.062500   0.312500     0.00390625
      196           0.437500   0.062500   0.437500     0.00390625
      197           0.437500   0.062500   0.562500     0.00390625
      198           0.437500   0.062500   0.687500     0.00390625
      199           0.437500   0.062500   0.812500     0.00390625
      200           0.437500   0.062500   0.937500     0.00390625
      201           0.437500   0.187500   0.062500     0.00390625
      202           0.437500   0.187500   0.187500     0.00390625
      203           0.437500   0.187500   0.312500     0.00390625
      204           0.437500   0.187500   0.437500     0.00390625
      205           0.437500   0.187500   0.562500     0.00390625
      206           0.437500   0.187500   0.687500     0.00390625
      207           0.437500   0.187500   0.812500     0.00390625
      208           0.437500   0.187500   0.937500     0.00390625
      209           0.437500   0.312500   0.062500     0.00390625
      210           0.437500   0.312500   0.187500     0.00390625
      211           0.437500   0.312500   0.312500     0.00390625
      212           0.437500   0.312500   0.437500     0.00390625
      213           0.437500   0.312500   0.562500     0.00390625
      214           0.437500   0.312500   0.687500     0.00390625
      215           0.437500   0.312500   0.812500     0.00390625
      216           0.437500   0.312500   0.937500     0.00390625
      217           0.437500   0.437500   0.062500     0.00390625
      218           0.437500   0.437500   0.187500     0.00390625
      219           0.437500   0.437500   0.312500     0.00390625
      220           0.437500   0.437500   0.437500     0.00390625
      221           0.437500   0.437500   0.562500     0.00390625
      222           0.437500   0.437500   0.687500     0.00390625
      223           0.437500   0.437500   0.812500     0.00390625
      224           0.437500   0.437500   0.937500     0.00390625
      225           0.437500   0.562500   0.062500     0.00390625
      226           0.437500   0.562500   0.187500     0.00390625
      227           0.437500   0.562500   0.312500     0.00390625
      228           0.437500   0.562500   0.437500     0.00390625
      229           0.437500   0.562500   0.562500     0.00390625
      230           0.437500   0.562500   0.687500     0.00390625
      231           0.437500   0.562500   0.812500     0.00390625
      232           0.437500   0.562500   0.937500     0.00390625
      233           0.437500   0.687500   0.062500     0.00390625
      234           0.437500   0.687500   0.187500     0.00390625
      235           0.437500   0.687500   0.312500     0.00390625
      236           0.437500   0.687500   0.437500     0.00390625
      237           0.437500   0.687500   0.562500     0.00390625
      238           0.437500   0.687500   0.687500     0.00390625
      239           0.437500   0.687500   0.812500     0.00390625
      240           0.437500   0.687500   0.937500     0.00390625
      241           0.437500   0.812500   0.062500     0.00390625
      242           0.437500   0.812500   0.187500     0.00390625
      243           0.437500   0.812500   0.312500     0.00390625
      244           0.437500   0.812500   0.437500     0.00390625
      245           0.437500   0.812500   0.562500     0.00390625
      246           0.437500   0.812500   0.687500     0.00390625
      247           0.437500   0.812500   0.812500     0.00390625
      248           0.437500   0.812500   0.937500     0.00390625
      249           0.437500   0.937500   0.062500     0.00390625
      250           0.437500   0.937500   0.187500     0.00390625
      251           0.437500   0.937500   0.312500     0.00390625
      252           0.437500   0.937500   0.437500     0.00390625
      253           0.437500   0.937500   0.562500     0.00390625
      254           0.437500   0.937500   0.687500     0.00390625
      255           0.437500   0.937500   0.812500     0.00390625
      256           0.437500   0.937500   0.937500     0.00390625
--------------------------------------------------------------------------------


********************************************************************************
*  General input information                                                   *
********************************************************************************

  Species output for all configurations : 

--------------------------------------------------------------------------------
  Species    Type    Atomic    Atomic    Charge       Radii (Angs)     Library
                     Number     Mass       (e)     Cova   Ionic  VDW   Symbol
--------------------------------------------------------------------------------
    C        Core        6      12.01   0.000000   0.770  0.000  1.530          
--------------------------------------------------------------------------------


  Lattice summation method               =    Ewald          (3-D)
                                         =    Parry          (2-D)
                                         =    Saunders et al (1-D)
  Accuracy factor for lattice sums       =   12.000


  Analytic derivatives to be used

  Time limit = Infinity

  Maximum range for interatomic potentials =    100000.000000 Angstroms

  Brenner et al 2002 potential to be used with explicit splines for P


********************************************************************************
*  Output for configuration   1                                                *
********************************************************************************


  Components of energy : 

--------------------------------------------------------------------------------
  Interatomic potentials     =           0.00000000 eV    
  Brenner potentials         =        -422.03250498 eV    
  Monopole - monopole (real) =           0.00000000 eV    
  Monopole - monopole (recip)=           0.00000000 eV    
  Monopole - monopole (total)=           0.00000000 eV    
--------------------------------------------------------------------------------
  Total lattice energy       =        -422.03250498 eV    
--------------------------------------------------------------------------------
  Total lattice energy       =          -40719.6854 kJ/(mole unit cells)
--------------------------------------------------------------------------------


  Elastic Constant Matrix: (Units=GPa)

-------------------------------------------------------------------------------
  Indices      1         2         3         4         5         6    
-------------------------------------------------------------------------------
       1    550.6291  209.2282  182.9089   15.2360  -32.2643   26.3270
       2    209.2282  400.3397  180.6595    1.5108   12.8747   18.6146
       3    182.9089  180.6595  413.9093    7.6979  -45.3043  -28.4067
       4     15.2360    1.5108    7.6979  148.8541  -28.2437  -12.8186
       5    -32.2643   12.8747  -45.3043  -28.2437  136.3588   16.2514
       6     26.3270   18.6146  -28.4067  -12.8186   16.2514  140.6630
-------------------------------------------------------------------------------


  Elastic Compliance Matrix: (Units=1/GPa)

-------------------------------------------------------------------------------
  Indices      1         2         3         4         5         6    
-------------------------------------------------------------------------------
       1    0.002462 -0.000991 -0.000635 -0.000161  0.000495 -0.000530
       2   -0.000991  0.003652 -0.001292 -0.000093 -0.000974 -0.000455
       3   -0.000635 -0.001292  0.003432  0.000174  0.001043  0.000878
       4   -0.000161 -0.000093  0.000174  0.007044  0.001421  0.000555
       5    0.000495 -0.000974  0.001043  0.001421  0.008253 -0.000577
       6   -0.000530 -0.000455  0.000878  0.000555 -0.000577  0.007563
-------------------------------------------------------------------------------

  Mechanical properties :

-------------------------------------------------------------------------------
  Convention :                    Reuss         Voigt         Hill
-------------------------------------------------------------------------------
  Bulk  Modulus (GPa)     =     269.53349     278.94126     274.23737
  Shear Modulus (GPa)     =     126.65545     137.98062     132.31804
-------------------------------------------------------------------------------
  Velocity S-wave (km/s)  =       6.61614       6.90561       6.76242
  Velocity P-wave (km/s)  =      12.30926      12.64864      12.48010
-------------------------------------------------------------------------------
  Compressibility (1/GPa) =    0.00371011
-------------------------------------------------------------------------------
  Stress axis :                     x             y             z
-------------------------------------------------------------------------------
  Youngs Moduli (GPa)     =     406.11631     273.84776     291.41406
-------------------------------------------------------------------------------
  Poissons Ratio (x)      =                     0.27143       0.18495
  Poissons Ratio (y)      =       0.40253                     0.37647
  Poissons Ratio (z)      =       0.25775       0.35378
-------------------------------------------------------------------------------


  Piezoelectric Strain Matrix: (Units=C/m**2)

-------------------------------------------------------------------------------
  Indices      1         2         3         4         5         6    
-------------------------------------------------------------------------------
       x    -0.00000  -0.00000  -0.00000  -0.00000  -0.00000  -0.00000
       y    -0.00000  -0.00000  -0.00000  -0.00000  -0.00000  -0.00000
       z    -0.00000  -0.00000  -0.00000  -0.00000  -0.00000  -0.00000
-------------------------------------------------------------------------------


  Piezoelectric Stress Matrix: (Units=10**-11 C/N)

-------------------------------------------------------------------------------
  Indices      1         2         3         4         5         6    
-------------------------------------------------------------------------------
       x     0.00000   0.00000   0.00000   0.00000   0.00000   0.00000
       y     0.00000   0.00000   0.00000   0.00000   0.00000   0.00000
       z     0.00000   0.00000   0.00000   0.00000   0.00000   0.00000
-------------------------------------------------------------------------------


  Static dielectric constant tensor : 

-------------------------------------------------------------------------------
              x         y         z
-------------------------------------------------------------------------------
       x     1.00000   0.00000   0.00000
       y     0.00000   1.00000   0.00000
       z     0.00000   0.00000   1.00000
--------------------------------------------------------------------------------

  Static refractive indices : 

-------------------------------------------------------------------------------
    1 =    1.00000      2 =    1.00000      3 =    1.00000
-------------------------------------------------------------------------------


  Phonon Calculation : 

  Number of k points for this configuration =      256

--------------------------------------------------------------------------------
  K point      1 =   0.062500  0.062500  0.062500  Weight =    0.004
--------------------------------------------------------------------------------

  Frequencies (cm-1) [NB: Negative implies an imaginary mode]:

   27.23   35.09   58.59  145.28  191.21  209.29  225.22  230.19  243.70
  250.06  259.17  272.03  278.02  286.41  299.16  301.58  313.64  318.34
  333.00  334.32  343.09  351.83  359.40  366.63  377.63  388.14  393.06
  401.33  409.55  416.08  424.59  432.00  437.27  438.50  449.51  453.34
  464.19  470.69  476.85  487.71  495.71  502.88  511.91  520.09  529.48
  534.19  537.58  550.98  557.60  565.12  570.67  579.27  590.94  591.27
  597.79  605.97  607.58  622.49  625.79  635.89  640.85  646.17  657.88
  665.07  670.75  682.51  688.76  693.56  706.33  709.33  715.58  726.70
  731.90  742.79  754.32  760.03  773.32  776.65  782.90  786.46  793.97
  805.14  813.73  818.68  823.64  831.26  841.50  852.95  862.80  871.18
  876.59  883.92  896.37  906.24  920.03  924.24  933.39  936.76  949.12
  954.02  965.59  972.82  982.22  991.15  994.69 1001.20 1009.18 1016.08
 1022.16 1028.72 1034.28 1046.17 1051.84 1066.46 1070.40 1078.74 1089.14
 1096.17 1100.95 1106.50 1116.19 1125.25 1138.61 1149.19 1159.87 1167.60
 1171.59 1179.94 1184.22 1196.30 1206.92 1213.62 1228.05 1242.14 1251.84
 1260.99 1268.01 1278.11 1289.73 1294.06 1295.98 1312.77 1320.72 1324.90
 1339.81 1345.23 1358.89 1362.70 1373.85 1388.81 1399.24 1415.56 1427.51
 1433.79 1441.68 1452.73 1459.08 1472.92 1487.10 1495.14 1512.52 1538.42
 1552.55 1555.68 1576.41 1585.11 1590.49 1593.98 1607.46 1668.87 1720.69
 1757.90 1779.15 1794.02 1816.84 1868.66 1875.57 1921.00 1935.19 1960.02
 1977.80 2057.15 2123.79 2167.74 2328.50 2478.77 2544.68 2563.60 2911.22
 2950.81 3168.98 3205.87


--------------------------------------------------------------------------------
  K point      2 =   0.062500  0.062500  0.187500  Weight =    0.004
--------------------------------------------------------------------------------

  Frequencies (cm-1) [NB: Negative implies an imaginary mode]:

   59.25   67.53   98.99  145.24  185.40  207.21  222.05  225.49  242.65
  249.36  258.48  266.08  270.64  286.51  300.17  303.45  307.38  318.68
  331.36  335.28  346.75  348.25  364.36  374.41  382.15  388.73  393.06
  399.28  405.36  416.92  422.23  429.06  432.71  437.26  451.00  457.70
  461.73  476.33  480.76  490.95  496.26  503.31  514.58  517.28  528.98
  535.44  539.26  546.70  555.29  564.17  573.67  578.75  585.53  591.47
  597.61  602.07  608.99  621.35  627.24  634.40  640.49  648.62  653.69
  661.10  671.12  682.44  686.79  693.85  704.75  711.54  719.56  722.65
  731.93  743.66  751.93  760.63  772.56  777.95  783.38  787.97  797.44
  802.18  812.39  817.41  826.44  837.83  840.56  852.50  862.65  869.35
  876.21  886.43  895.44  905.61  920.15  926.12  935.83  941.87  947.85
  956.24  965.21  970.70  979.96  988.16  995.69  999.20 1010.43 1014.23
 1024.16 1028.38 1033.36 1046.35 1055.53 1064.99 1069.27 1076.02 1089.76
 1095.31 1100.95 1108.64 1118.64 1125.72 1135.24 1148.90 1160.05 1169.14
 1171.15 1180.50 1183.54 1195.96 1207.74 1213.12 1227.23 1241.75 1251.43
 1261.77 1266.80 1279.36 1287.97 1294.65 1297.23 1311.74 1320.28 1324.44
 1337.75 1346.71 1361.20 1363.67 1372.84 1389.47 1400.57 1414.71 1428.40
 1431.38 1441.89 1451.24 1461.02 1472.40 1487.97 1494.75 1512.49 1538.08
 1553.32 1556.06 1574.81 1584.75 1591.25 1594.40 1607.59 1668.56 1720.57
 1757.90 1779.17 1794.05 1816.86 1868.64 1875.65 1920.97 1935.79 1960.02
 1977.26 2057.15 2123.79 2167.74 2328.51 2478.77 2544.70 2563.59 2911.22
 2950.80 3168.98 3205.87


--------------------------------------------------------------------------------
  K point      3 =   0.062500  0.062500  0.312500  Weight =    0.004
--------------------------------------------------------------------------------

  Frequencies (cm-1) [NB: Negative implies an imaginary mode]:

   89.02   97.89  132.72  162.48  176.38  202.79  214.23  223.61  235.47
  245.30  249.12  263.67  269.20  284.23  293.61  306.94  310.75  318.48
  324.26  337.33  350.42  352.85  365.32  373.67  378.00  390.34  395.02
  397.79  403.25  416.64  423.81  428.32  433.28  437.20  454.18  458.43
  460.98  473.99  487.67  492.99  495.37  508.64  511.38  522.60  530.64
  535.01  540.39  544.41  552.62  564.52  573.31  575.76  580.46  589.81
  593.73  605.84  607.30  617.55  626.29  632.51  639.28  646.95  653.70
  657.94  670.81  682.55  685.76  692.81  704.04  710.39  720.56  727.13
  730.94  745.74  751.24  762.87  771.22  775.40  783.66  790.94  796.41
  802.08  809.32  822.20  829.48  838.89  842.48  849.85  863.20  871.56
  877.96  885.13  895.83  904.37  919.29  929.51  940.14  944.44  948.81
  956.05  964.12  971.48  975.27  984.65  996.71  998.81 1006.83 1016.21
 1025.98 1029.25 1033.30 1044.81 1057.47 1060.51 1071.80 1075.01 1090.60
 1094.39 1099.29 1108.96 1123.94 1127.98 1132.29 1147.16 1158.97 1169.34
 1171.20 1180.25 1181.86 1197.15 1210.38 1212.98 1226.50 1240.47 1251.54
 1262.91 1265.49 1279.14 1286.22 1293.54 1299.58 1309.62 1320.50 1323.55
 1336.36 1348.13 1360.55 1368.85 1372.18 1389.63 1402.92 1414.03 1427.73
 1429.05 1441.31 1450.02 1463.58 1471.76 1488.89 1494.44 1512.49 1537.50
 1554.37 1556.59 1572.73 1584.44 1591.70 1595.25 1607.84 1668.09 1720.39
 1757.91 1779.22 1794.08 1816.87 1868.57 1875.79 1920.94 1936.68 1960.03
 1976.47 2057.15 2123.79 2167.74 2328.51 2478.76 2544.73 2563.59 2911.22
 2950.80 3168.99 3205.87


--------------------------------------------------------------------------------
  K point      4 =   0.062500  0.062500  0.437500  Weight =    0.004
--------------------------------------------------------------------------------

  Frequencies (cm-1) [NB: Negative implies an imaginary mode]:

  101.69  126.19  145.36  163.67  186.48  202.23  210.17  221.59  224.99
  236.27  250.12  265.54  272.50  281.35  289.07  301.91  310.75  318.70
  324.66  339.61  348.21  355.80  360.63  370.15  378.30  385.51  390.61
  399.12  410.67  418.00  423.73  430.53  433.56  442.06  451.94  457.27
  465.99  475.47  485.44  492.28  499.83  508.17  512.20  522.60  529.00
  532.38  543.47  548.91  552.56  563.66  568.73  576.28  580.74  586.50
  593.32  602.29  607.61  613.92  627.15  630.54  635.02  644.30  656.18
  659.36  668.26  681.01  685.38  693.12  703.53  711.61  719.72  728.10
  736.40  746.55  752.64  764.75  767.06  775.44  783.52  792.56  796.56
  801.40  806.14  823.97  827.87  839.53  846.07  850.02  864.54  873.54
  877.74  887.30  896.17  902.09  918.60  932.05  938.98  945.95  953.29
  954.81  961.45  969.22  973.53  985.74  995.48 1001.02 1005.27 1015.38
 1025.12 1031.77 1035.30 1043.40 1054.79 1059.94 1073.33 1076.16 1089.07
 1094.33 1098.20 1109.16 1124.88 1131.67 1135.29 1143.15 1156.65 1168.77
 1171.76 1178.18 1181.40 1198.57 1211.70 1215.49 1226.33 1238.70 1252.85
 1263.36 1264.65 1276.03 1286.09 1292.80 1300.90 1308.00 1321.23 1322.64
 1335.91 1349.30 1359.20 1370.22 1375.55 1389.00 1404.81 1414.31 1424.79
 1428.36 1440.63 1449.75 1465.54 1471.22 1489.23 1494.45 1512.56 1537.06
 1554.84 1557.13 1571.32 1584.33 1591.87 1595.84 1608.07 1667.75 1720.26
 1757.92 1779.26 1794.10 1816.86 1868.50 1875.91 1920.92 1937.33 1960.03
 1975.89 2057.15 2123.79 2167.74 2328.52 2478.76 2544.75 2563.59 2911.22
 2950.79 3168.99 3205.87


--------------------------------------------------------------------------------
  K point      5 =   0.062500  0.062500  0.562500  Weight =    0.004
--------------------------------------------------------------------------------

  Frequencies (cm-1) [NB: Negative implies an imaginary mode]:

   97.18  137.74  145.82  158.64  185.90  205.62  212.91  216.67  222.05
  238.90  253.06  262.66  274.58  282.58  288.99  291.42  311.02  321.18
  330.06  338.12  350.09  355.38  359.44  368.72  378.34  385.43  391.44
  397.39  410.47  417.91  423.48  430.56  433.42  441.49  451.66  459.87
  467.63  475.06  485.56  492.29  500.96  507.63  511.26  523.58  527.15
  535.66  542.08  544.36  555.90  561.35  567.78  574.18  583.21  590.71
  596.71  601.96  607.27  613.64  619.34  630.89  635.24  647.48  654.16
  658.42  666.28  680.86  685.41  692.27  704.21  713.37  722.44  729.67
  738.73  746.60  755.98  761.49  766.52  776.05  783.23  791.90  795.38
  800.65  804.72  819.69  829.09  837.92  849.12  852.33  863.53  875.97
  877.82  888.06  896.83  901.26  921.16  930.30  938.61  944.21  952.23
  954.77  959.50  968.36  973.80  987.91  992.83 1002.18 1004.73 1016.25
 1024.89 1032.44 1038.69 1041.77 1052.77 1060.87 1072.61 1079.51 1085.83
 1094.33 1100.40 1108.31 1124.10 1132.35 1135.82 1144.22 1155.68 1168.04
 1171.59 1176.47 1182.19 1197.83 1212.53 1217.80 1226.75 1238.38 1253.66
 1262.20 1265.37 1273.90 1286.32 1292.74 1300.32 1307.91 1321.26 1322.40
 1336.20 1350.30 1358.39 1369.78 1377.20 1388.64 1405.35 1414.34 1423.69
 1427.91 1440.66 1450.46 1465.60 1470.95 1489.40 1494.55 1512.47 1537.18
 1554.22 1557.41 1571.35 1584.44 1592.07 1595.60 1608.15 1667.74 1720.25
 1757.93 1779.28 1794.09 1816.85 1868.45 1875.94 1920.93 1937.34 1960.04
 1975.88 2057.15 2123.79 2167.74 2328.52 2478.76 2544.75 2563.59 2911.22
 2950.79 3168.99 3205.87


--------------------------------------------------------------------------------
  K point      6 =   0.062500  0.062500  0.687500  Weight =    0.004
--------------------------------------------------------------------------------

  Frequencies (cm-1) [NB: Negative implies an imaginary mode]:

   81.04  107.08  144.77  165.53  172.42  206.31  210.89  216.66  233.45
  238.47  254.00  263.15  276.24  289.01  291.76  294.76  312.65  323.03
  328.76  337.48  350.63  356.25  359.47  367.30  375.34  383.92  395.17
  402.24  408.61  418.71  422.34  427.82  432.29  438.18  453.22  460.02
  464.24  472.57  488.14  493.41  499.39  505.47  512.64  522.70  527.51
  533.90  541.17  547.38  551.26  561.34  568.73  575.20  587.47  591.37
  596.32  605.42  612.19  615.95  619.35  630.40  638.11  644.23  653.81
  659.50  663.31  682.96  686.76  690.76  705.29  713.49  726.60  729.85
  736.29  749.27  753.44  763.60  766.50  774.27  783.64  787.53  792.69
  802.52  806.01  820.93  827.85  835.19  845.75  853.06  864.43  875.09
  880.60  887.39  894.30  905.23  922.57  927.87  936.67  943.90  948.35
  951.49  960.03  970.26  977.18  986.05  992.59 1001.19 1005.51 1018.50
 1025.27 1032.93 1038.61 1041.51 1051.75 1062.81 1072.06 1081.71 1084.99
 1093.53 1105.00 1106.47 1120.81 1130.38 1133.55 1149.01 1157.28 1167.51
 1170.02 1177.41 1183.14 1195.80 1212.32 1217.90 1227.31 1240.11 1252.25
 1261.74 1266.35 1275.26 1286.70 1292.81 1297.98 1309.63 1320.56 1322.74
 1336.94 1350.69 1358.71 1368.52 1375.02 1389.09 1404.24 1413.77 1425.01
 1428.74 1441.22 1451.84 1463.38 1471.31 1489.34 1494.72 1512.26 1537.78
 1553.10 1557.09 1572.78 1584.71 1592.24 1594.63 1608.03 1668.05 1720.37
 1757.93 1779.26 1794.07 1816.83 1868.47 1875.87 1920.96 1936.69 1960.03
 1976.46 2057.15 2123.79 2167.74 2328.51 2478.76 2544.73 2563.59 2911.22
 2950.80 3168.99 3205.87


--------------------------------------------------------------------------------
  K point      7 =   0.062500  0.062500  0.812500  Weight =    0.004
--------------------------------------------------------------------------------

  Frequencies (cm-1) [NB: Negative implies an imaginary mode]:

   58.62   70.37  107.72  154.70  179.92  206.67  214.52  224.34  238.81
  245.98  257.66  268.81  281.70  289.12  296.53  302.40  309.36  324.15
  330.46  332.51  346.10  350.46  363.50  368.48  372.12  382.55  395.65
  402.37  411.38  415.97  426.17  428.22  433.09  438.95  449.84  461.14
  463.89  475.30  479.07  490.42  496.93  502.86  512.05  520.47  526.21
  536.15  541.70  548.06  552.18  566.57  569.82  576.26  584.91  592.44
  600.15  605.05  612.34  622.89  625.38  632.51  634.26  643.39  655.68
  660.03  667.35  684.60  688.59  692.18  705.10  707.76  725.04  729.69
  734.45  748.16  756.77  762.41  768.10  773.24  782.08  783.59  795.68
  802.47  810.37  822.74  823.96  832.06  842.35  853.60  862.44  875.21
  880.97  884.84  895.28  907.90  918.85  926.83  935.13  939.04  946.62
  952.17  961.85  973.32  978.78  989.80  992.79  999.73 1007.24 1016.86
 1025.85 1031.63 1039.43 1041.46 1049.89 1064.29 1072.97 1082.09 1086.88
 1092.55 1104.56 1108.89 1115.54 1127.53 1135.38 1150.54 1160.31 1164.70
 1170.91 1179.56 1183.38 1194.75 1210.71 1216.45 1227.86 1242.01 1250.87
 1261.51 1267.61 1277.24 1288.38 1292.60 1295.41 1312.19 1320.43 1322.89
 1337.89 1350.05 1359.70 1364.32 1374.05 1389.12 1401.63 1414.50 1426.33
 1430.90 1441.77 1453.34 1460.25 1472.07 1488.52 1495.03 1512.24 1538.31
 1552.28 1556.41 1574.84 1585.03 1591.72 1593.86 1607.76 1668.52 1720.55
 1757.92 1779.21 1794.03 1816.82 1868.53 1875.73 1920.99 1935.81 1960.03
 1977.25 2057.15 2123.79 2167.74 2328.51 2478.77 2544.70 2563.59 2911.22
 2950.80 3168.98 3205.87


--------------------------------------------------------------------------------
  K point      8 =   0.062500  0.062500  0.937500  Weight =    0.004
--------------------------------------------------------------------------------

  Frequencies (cm-1) [NB: Negative implies an imaginary mode]:

   35.21   35.74   59.84  148.74  191.02  205.72  223.13  228.60  243.84
  252.51  254.93  274.84  279.91  290.05  296.92  303.06  311.63  324.42
  329.23  333.18  344.94  350.19  358.76  365.25  372.75  387.03  395.87
  401.74  410.57  414.41  425.89  430.25  438.10  441.50  448.42  457.78
  461.98  470.61  477.79  487.96  495.73  500.61  509.96  522.38  526.79
  534.15  543.10  549.62  555.72  564.88  572.73  576.84  586.89  592.98
  601.30  604.12  612.67  620.13  628.53  632.22  639.37  644.30  657.21
  663.89  672.15  684.40  688.10  695.10  702.03  707.05  719.61  728.20
  734.44  744.11  756.11  763.98  769.54  774.28  780.62  785.91  794.12
  805.15  812.81  820.73  824.14  828.89  841.45  853.20  862.17  874.01
  878.19  883.38  896.33  907.31  919.42  924.47  932.31  936.46  948.30
  952.38  965.01  973.51  981.47  992.37  994.59 1000.43 1007.11 1016.83
 1023.24 1030.31 1037.26 1043.19 1049.79 1065.75 1072.63 1081.22 1088.12
 1094.69 1102.79 1106.16 1115.32 1125.93 1138.28 1149.99 1160.44 1165.28
 1171.44 1180.24 1183.76 1195.63 1208.47 1214.67 1228.26 1242.39 1251.29
 1261.07 1268.45 1277.54 1290.55 1292.36 1295.06 1313.13 1320.93 1323.82
 1339.24 1347.55 1358.92 1362.25 1374.23 1388.72 1399.59 1415.51 1426.86
 1433.39 1441.72 1453.81 1458.46 1472.79 1487.37 1495.26 1512.42 1538.49
 1552.16 1555.80 1576.41 1585.24 1590.60 1593.83 1607.53 1668.85 1720.69
 1757.91 1779.16 1794.02 1816.83 1868.61 1875.61 1921.01 1935.19 1960.02
 1977.79 2057.15 2123.79 2167.74 2328.50 2478.77 2544.68 2563.60 2911.22
 2950.81 3168.98 3205.87


--------------------------------------------------------------------------------
  K point      9 =   0.062500  0.187500  0.062500  Weight =    0.004
--------------------------------------------------------------------------------

  Frequencies (cm-1) [NB: Negative implies an imaginary mode]:

   52.83   68.27  105.44  152.04  182.43  205.92  221.12  232.37  242.37
  246.34  256.12  267.85  276.70  282.36  294.29  306.52  314.36  317.21
  327.41  335.56  345.21  352.30  359.93  364.16  376.28  384.64  391.01
  401.54  405.45  418.81  421.84  435.45  438.47  440.74  447.69  454.92
  466.21  470.23  479.11  485.05  495.79  499.88  514.47  522.10  531.18
  533.96  542.63  546.79  558.01  560.23  565.71  575.94  585.96  593.24
  598.58  602.68  606.26  625.18  631.34  637.41  641.55  651.93  659.31
  668.68  674.23  688.06  689.18  696.58  703.04  709.42  715.21  726.17
  729.07  743.78  749.25  759.45  768.93  773.59  784.12  787.01  795.68
  806.27  811.58  817.73  824.06  833.01  843.43  849.32  862.19  872.97
  878.19  887.96  897.96  904.95  915.11  924.84  930.79  940.50  949.19
  952.87  969.82  974.37  978.37  987.80  998.01  999.69 1008.64 1016.89
 1021.73 1026.85 1032.38 1046.63 1054.64 1063.60 1070.05 1083.17 1087.86
 1095.59 1103.14 1106.02 1115.41 1125.45 1138.23 1148.00 1157.85 1166.23
 1173.60 1176.56 1187.91 1195.45 1206.00 1218.50 1228.85 1241.49 1251.09
 1261.49 1268.04 1279.59 1286.98 1290.50 1298.78 1312.15 1319.57 1326.84
 1339.58 1347.22 1357.59 1363.34 1373.92 1387.93 1401.28 1414.47 1425.74
 1433.09 1440.63 1455.05 1460.15 1473.31 1486.86 1495.35 1511.65 1538.27
 1552.45 1556.36 1576.53 1584.85 1590.13 1594.03 1607.58 1668.86 1720.72
 1757.92 1779.13 1793.99 1816.86 1868.85 1875.30 1921.02 1935.19 1960.08
 1977.80 2057.14 2123.79 2167.74 2328.50 2478.77 2544.68 2563.59 2911.22
 2950.81 3168.98 3205.87


--------------------------------------------------------------------------------
  K point     10 =   0.062500  0.187500  0.187500  Weight =    0.004
--------------------------------------------------------------------------------

  Frequencies (cm-1) [NB: Negative implies an imaginary mode]:

   63.96   93.46  120.61  158.51  180.00  203.24  219.14  230.59  239.22
  245.50  253.66  262.91  271.76  282.79  292.45  300.96  310.80  316.63
  328.53  336.47  346.83  355.68  364.38  375.10  379.74  387.12  389.17
  401.37  404.48  414.72  421.50  432.65  436.47  440.98  445.93  454.65
  467.59  476.26  481.46  488.32  496.57  497.55  514.08  523.72  527.94
  534.20  541.83  546.83  551.33  561.02  567.09  576.43  581.25  590.46
  600.52  604.77  607.54  621.93  630.42  637.51  641.12  650.51  656.07
  664.55  674.42  683.43  688.96  698.25  705.99  711.23  718.44  721.88
  733.14  741.56  748.29  760.50  769.61  777.51  781.09  783.65  800.08
  805.30  812.35  817.35  824.30  836.73  844.42  852.27  863.20  868.94
  876.61  888.96  893.10  905.88  915.26  928.53  934.80  944.56  949.19
  955.18  967.89  973.28  976.67  985.89  996.96  999.85 1008.11 1014.56
 1022.93 1027.20 1032.66 1047.50 1056.35 1063.66 1067.37 1080.55 1088.78
 1095.56 1103.29 1107.19 1117.99 1125.99 1136.32 1146.18 1158.13 1167.26
 1171.21 1178.59 1186.99 1196.87 1206.95 1215.97 1227.62 1241.76 1250.57
 1261.91 1267.38 1280.77 1286.66 1291.19 1300.10 1311.44 1319.18 1327.84
 1339.97 1344.30 1358.79 1363.39 1373.14 1389.16 1401.51 1415.43 1426.93
 1430.46 1441.66 1452.92 1461.93 1472.55 1487.84 1494.99 1511.56 1538.15
 1552.83 1556.92 1574.86 1584.51 1590.80 1594.63 1607.69 1668.55 1720.60
 1757.92 1779.16 1794.02 1816.88 1868.83 1875.38 1920.99 1935.80 1960.08
 1977.26 2057.14 2123.79 2167.74 2328.51 2478.77 2544.70 2563.59 2911.22
 2950.80 3168.99 3205.87


--------------------------------------------------------------------------------
  K point     11 =   0.062500  0.187500  0.312500  Weight =    0.004
--------------------------------------------------------------------------------

  Frequencies (cm-1) [NB: Negative implies an imaginary mode]:

   89.95  113.44  129.41  176.41  184.93  198.30  213.39  224.94  233.17
  241.07  248.23  265.31  268.95  280.49  289.33  296.85  309.55  315.27
  326.06  337.60  350.91  358.59  366.32  375.35  378.60  391.06  393.52
  398.56  402.89  418.73  423.73  429.19  435.36  439.30  449.53  455.90
  466.43  477.54  485.70  489.43  498.57  502.42  513.71  520.77  526.65
  535.91  540.62  545.51  548.68  562.69  566.76  574.77  576.64  589.17
  597.13  606.31  609.62  614.21  627.91  636.88  641.89  646.03  655.12
  662.61  670.50  682.42  687.00  695.23  706.55  715.72  719.59  725.36
  732.17  742.73  750.78  763.32  769.14  776.03  778.27  786.92  799.68
  804.23  812.60  818.44  829.57  837.39  845.36  854.73  862.04  868.26
  876.26  886.01  894.93  905.09  916.51  932.98  939.84  945.41  951.67
  957.06  964.36  969.21  975.30  982.84  995.38 1000.94 1004.79 1014.26
 1024.72 1029.41 1034.53 1045.80 1056.47 1060.08 1070.77 1079.08 1090.09
 1094.82 1101.13 1108.55 1122.05 1128.35 1133.99 1143.25 1158.61 1165.36
 1170.49 1179.96 1184.64 1199.13 1209.83 1214.66 1225.76 1241.21 1251.24
 1262.22 1266.95 1279.78 1287.14 1290.51 1301.57 1309.91 1319.32 1327.43
 1336.88 1346.03 1360.21 1365.31 1372.50 1389.89 1402.75 1416.10 1426.64
 1428.55 1442.27 1450.11 1463.55 1472.56 1488.56 1495.10 1511.63 1537.60
 1553.05 1557.77 1572.82 1584.33 1591.30 1595.56 1607.89 1668.10 1720.42
 1757.94 1779.21 1794.05 1816.87 1868.75 1875.51 1920.97 1936.68 1960.08
 1976.47 2057.14 2123.79 2167.74 2328.51 2478.76 2544.73 2563.59 2911.22
 2950.80 3168.99 3205.87


--------------------------------------------------------------------------------
  K point     12 =   0.062500  0.187500  0.437500  Weight =    0.004
--------------------------------------------------------------------------------

  Frequencies (cm-1) [NB: Negative implies an imaginary mode]:

  106.30  126.04  146.26  169.95  188.03  197.24  209.42  223.60  230.37
  234.97  251.99  265.32  269.53  278.34  286.66  301.28  307.48  313.98
  325.75  339.14  344.43  355.94  362.36  374.03  382.29  388.11  394.96
  399.63  408.74  417.24  424.95  430.88  435.25  443.03  450.40  456.77
  467.67  478.32  486.52  492.80  499.03  503.47  515.67  516.06  523.42
  536.82  540.20  546.93  554.65  561.06  564.90  572.88  578.24  583.26
  595.59  603.99  608.16  611.61  627.52  633.35  637.48  648.75  656.71
  661.87  667.74  680.99  682.82  695.45  704.52  714.70  721.90  730.81
  734.07  741.94  754.74  762.76  769.70  773.49  779.00  789.24  799.87
  803.98  810.55  820.99  831.10  838.46  842.55  855.02  861.16  871.97
  876.69  887.96  897.02  904.64  917.89  934.31  941.82  944.17  952.86
  957.13  961.24  964.95  973.56  984.19  993.18 1001.71 1004.70 1011.93
 1024.71 1033.94 1037.11 1044.60 1053.69 1059.53 1073.42 1078.97 1089.07
 1094.83 1099.78 1109.63 1123.15 1131.30 1133.98 1140.67 1157.12 1165.03
 1170.21 1179.50 1183.25 1199.91 1211.49 1216.92 1224.87 1240.29 1253.03
 1261.87 1266.91 1276.04 1289.01 1289.16 1302.08 1308.31 1319.69 1325.98
 1335.50 1348.18 1359.43 1369.34 1372.89 1389.45 1404.49 1416.24 1423.77
 1428.73 1442.02 1448.95 1464.21 1473.01 1488.84 1495.48 1511.82 1537.10
 1552.79 1558.45 1571.59 1584.37 1591.69 1596.02 1608.10 1667.77 1720.28
 1757.95 1779.25 1794.07 1816.86 1868.67 1875.61 1920.97 1937.33 1960.09
 1975.89 2057.14 2123.79 2167.74 2328.52 2478.76 2544.75 2563.59 2911.22
 2950.79 3168.99 3205.87


--------------------------------------------------------------------------------
  K point     13 =   0.062500  0.187500  0.562500  Weight =    0.004
--------------------------------------------------------------------------------

  Frequencies (cm-1) [NB: Negative implies an imaginary mode]:

  103.50  140.94  150.57  162.04  177.90  199.80  213.26  220.67  224.90
  241.93  255.60  259.75  272.96  278.26  284.93  296.93  305.08  321.55
  328.51  335.44  346.58  353.89  363.17  367.82  381.45  391.22  393.01
  400.01  409.92  415.01  426.01  431.22  434.60  441.45  453.38  459.61
  469.91  475.45  486.05  495.77  499.70  505.89  509.26  520.87  524.55
  534.59  540.67  546.30  554.65  561.02  562.89  571.14  579.46  589.95
  595.50  601.72  608.51  613.94  620.74  631.39  639.02  648.85  658.59
  660.09  666.95  677.94  683.15  694.19  704.26  713.74  724.77  733.19
  735.38  744.87  755.84  758.72  766.45  776.29  779.67  789.13  801.09
  805.72  808.33  818.42  829.44  835.51  845.06  854.56  862.16  874.83
  881.41  890.27  894.83  905.76  921.23  931.15  939.03  944.76  949.83
  953.29  960.06  966.66  972.77  984.71  991.19 1002.23 1004.54 1014.12
 1023.70 1035.34 1039.45 1045.65 1051.37 1060.63 1072.84 1080.89 1087.67
 1094.84 1101.39 1109.58 1120.56 1129.25 1134.42 1144.91 1155.61 1164.81
 1170.53 1178.28 1183.39 1198.02 1212.62 1219.67 1225.99 1240.36 1253.67
 1261.90 1267.28 1272.23 1287.70 1291.07 1300.65 1308.10 1319.56 1324.45
 1335.89 1350.21 1358.70 1369.90 1375.78 1388.45 1405.65 1414.29 1422.71
 1428.69 1441.60 1450.24 1463.43 1473.36 1488.99 1495.79 1511.89 1537.05
 1552.08 1558.59 1571.73 1584.59 1592.05 1595.64 1608.18 1667.75 1720.27
 1757.96 1779.27 1794.06 1816.83 1868.63 1875.62 1920.99 1937.34 1960.09
 1975.88 2057.14 2123.79 2167.74 2328.52 2478.76 2544.75 2563.59 2911.22
 2950.79 3168.99 3205.87


--------------------------------------------------------------------------------
  K point     14 =   0.062500  0.187500  0.687500  Weight =    0.004
--------------------------------------------------------------------------------

  Frequencies (cm-1) [NB: Negative implies an imaginary mode]:

   94.15  115.94  147.43  162.37  185.87  198.99  211.84  217.39  235.60
  239.16  249.40  258.32  278.44  281.19  290.05  297.63  307.13  323.63
  328.68  334.04  347.15  357.66  359.74  367.09  372.14  382.52  395.84
  408.07  412.01  415.35  425.30  428.35  433.75  441.84  452.76  462.49
  467.03  471.77  486.41  495.20  500.65  504.96  513.94  518.13  527.48
  532.41  541.89  547.09  551.09  555.48  565.17  573.84  585.56  591.69
  596.66  602.87  612.15  617.68  622.48  630.36  639.07  644.39  655.72
  664.90  665.92  679.82  685.07  693.70  705.73  710.15  725.68  734.34
  737.29  744.35  754.49  759.45  762.06  775.93  781.85  788.38  798.04
  805.80  809.40  818.22  828.89  831.69  844.86  856.04  862.36  875.18
  885.41  891.99  892.40  903.82  923.73  928.55  934.89  944.87  948.69
  950.05  959.45  967.09  975.48  984.29  990.90 1000.60 1006.40 1017.53
 1023.21 1034.75 1039.21 1046.32 1049.80 1062.50 1072.42 1082.77 1088.42
 1094.06 1104.22 1109.11 1116.40 1125.21 1135.53 1149.60 1156.23 1165.27
 1168.11 1180.19 1183.62 1195.23 1212.55 1221.48 1227.22 1241.88 1251.53
 1262.51 1268.77 1271.03 1286.79 1291.91 1297.96 1309.90 1318.91 1323.61
 1336.69 1351.65 1358.77 1369.31 1376.11 1388.00 1405.72 1411.33 1423.47
 1429.58 1441.47 1452.74 1461.35 1473.69 1488.67 1496.00 1511.82 1537.34
 1551.45 1558.15 1573.11 1584.89 1592.13 1594.70 1608.05 1668.07 1720.39
 1757.95 1779.25 1794.03 1816.82 1868.65 1875.54 1921.02 1936.70 1960.09
 1976.46 2057.14 2123.79 2167.74 2328.51 2478.76 2544.73 2563.59 2911.22
 2950.80 3168.99 3205.87


--------------------------------------------------------------------------------
  K point     15 =   0.062500  0.187500  0.812500  Weight =    0.004
--------------------------------------------------------------------------------

  Frequencies (cm-1) [NB: Negative implies an imaginary mode]:

   77.98   84.84  128.69  168.15  176.93  197.70  216.39  220.00  238.40
  248.19  252.69  262.71  279.33  288.17  294.22  302.00  311.26  319.97
  327.07  331.82  344.40  349.53  362.41  365.10  371.75  378.79  396.90
  406.84  408.27  414.48  426.87  428.94  438.32  444.69  450.27  461.83
  466.34  475.43  479.30  487.62  497.51  506.78  509.83  523.14  526.66
  537.11  538.50  545.42  554.86  557.43  567.75  576.58  584.44  592.21
  597.54  604.12  614.86  620.17  628.49  632.51  638.35  644.31  656.72
  664.52  671.16  684.16  688.33  694.80  702.92  705.03  724.73  733.57
  735.28  746.12  752.03  758.32  763.33  774.08  781.92  788.96  795.95
  805.42  810.57  818.69  826.81  832.00  843.76  851.31  864.32  873.27
  885.28  890.50  895.85  902.78  920.11  927.59  931.68  939.73  947.35
  952.69  962.70  970.40  976.56  987.89  991.85  999.69 1006.76 1016.86
 1025.66 1033.09 1037.07 1043.60 1050.78 1063.20 1073.73 1083.94 1088.49
 1095.02 1103.75 1109.76 1112.47 1123.94 1136.79 1150.67 1159.35 1163.10
 1168.38 1181.34 1184.78 1193.65 1210.90 1222.11 1227.56 1243.04 1249.84
 1262.13 1270.21 1273.15 1286.34 1291.46 1296.39 1312.31 1318.87 1323.26
 1337.32 1352.08 1359.41 1367.00 1374.62 1387.90 1403.90 1411.19 1424.42
 1431.50 1441.14 1455.40 1458.91 1474.06 1487.68 1496.05 1511.78 1537.67
 1551.43 1557.33 1575.07 1585.14 1591.30 1594.07 1607.80 1668.52 1720.57
 1757.94 1779.20 1794.00 1816.82 1868.73 1875.42 1921.04 1935.81 1960.08
 1977.25 2057.14 2123.79 2167.74 2328.51 2478.77 2544.70 2563.59 2911.22
 2950.81 3168.99 3205.87


--------------------------------------------------------------------------------
  K point     16 =   0.062500  0.187500  0.937500  Weight =    0.004
--------------------------------------------------------------------------------

  Frequencies (cm-1) [NB: Negative implies an imaginary mode]:

   58.79   65.79  105.80  158.22  182.94  200.01  220.86  226.20  244.01
  249.74  253.84  271.08  277.86  285.60  293.92  308.12  312.32  320.17
  326.90  333.16  341.84  349.24  357.61  361.28  375.50  382.57  395.24
  401.57  408.45  414.12  425.27  432.24  439.85  443.16  451.60  458.63
  465.98  467.75  479.75  485.69  496.40  502.10  510.70  523.00  530.47
  536.03  539.88  546.91  558.37  561.15  566.29  575.37  587.27  590.35
  599.21  604.27  609.99  622.08  630.21  636.34  640.10  650.23  660.76
  665.89  675.18  684.81  691.91  696.70  698.59  705.21  720.28  729.58
  732.29  744.71  751.07  761.59  764.67  770.97  783.95  789.18  796.06
  804.14  811.33  818.05  825.14  832.19  842.67  849.65  862.65  872.59
  883.07  888.77  897.94  903.82  917.30  924.63  929.85  938.33  947.91
  952.20  968.53  974.65  976.40  988.63  996.42 1000.17 1005.71 1018.24
 1023.56 1029.46 1034.97 1043.06 1052.94 1063.54 1073.12 1084.00 1088.12
 1096.51 1103.13 1105.37 1113.97 1125.13 1137.95 1149.80 1158.93 1163.82
 1171.12 1179.06 1186.90 1194.22 1208.05 1220.91 1228.44 1242.00 1250.76
 1261.63 1269.12 1277.12 1286.53 1290.43 1297.25 1312.72 1319.74 1324.43
 1338.06 1350.98 1358.99 1363.72 1374.31 1387.54 1402.04 1412.89 1425.01
 1433.42 1440.45 1456.24 1458.51 1474.05 1486.72 1495.82 1511.75 1538.00
 1551.93 1556.55 1576.60 1585.17 1590.18 1593.92 1607.61 1668.84 1720.70
 1757.92 1779.15 1793.98 1816.84 1868.81 1875.32 1921.04 1935.20 1960.08
 1977.79 2057.14 2123.79 2167.74 2328.50 2478.77 2544.68 2563.59 2911.22
 2950.81 3168.98 3205.87


--------------------------------------------------------------------------------
  K point     17 =   0.062500  0.312500  0.062500  Weight =    0.004
--------------------------------------------------------------------------------

  Frequencies (cm-1) [NB: Negative implies an imaginary mode]:

   86.84  103.18  134.88  164.84  181.87  192.57  215.50  232.53  240.59
  242.95  253.64  262.90  272.58  281.31  288.55  304.39  315.58  319.77
  321.06  335.54  343.95  349.22  360.03  367.56  373.87  382.93  388.57
  400.54  406.25  418.26  420.77  429.50  436.66  442.96  448.68  453.89
  461.71  471.32  482.69  487.00  497.27  502.10  518.21  521.77  529.25
  536.82  538.52  547.08  553.77  560.66  565.35  578.93  586.38  591.60
  595.89  602.46  608.62  623.97  633.67  640.28  645.49  653.71  662.20
  671.16  676.23  687.04  693.76  698.86  703.91  711.18  716.48  719.42
  727.09  742.74  746.72  758.15  764.22  770.30  783.35  789.82  795.11
  803.35  806.77  818.36  829.08  836.52  845.44  852.86  862.18  870.94
  881.12  889.88  897.27  902.92  913.91  925.89  930.33  939.76  946.74
  950.55  971.18  978.06  980.66  986.70  995.68 1000.26 1006.42 1016.82
 1021.82 1025.33 1030.81 1047.26 1056.93 1061.08 1069.79 1084.17 1089.06
 1096.51 1101.76 1109.60 1114.05 1125.75 1135.52 1146.32 1157.52 1165.16
 1170.49 1177.98 1189.85 1196.46 1207.68 1221.98 1230.65 1241.09 1250.12
 1260.92 1268.95 1279.16 1282.66 1288.08 1301.84 1311.67 1318.04 1326.87
 1338.49 1351.95 1358.26 1363.84 1373.74 1386.52 1403.71 1412.43 1424.37
 1431.27 1439.90 1456.86 1460.96 1475.52 1486.08 1495.89 1510.29 1538.10
 1552.02 1557.33 1576.74 1584.58 1589.59 1594.17 1607.70 1668.84 1720.75
 1757.94 1779.11 1793.94 1816.88 1869.16 1874.85 1921.06 1935.20 1960.16
 1977.79 2057.12 2123.79 2167.75 2328.50 2478.77 2544.68 2563.59 2911.22
 2950.81 3168.98 3205.87


--------------------------------------------------------------------------------
  K point     18 =   0.062500  0.312500  0.187500  Weight =    0.004
--------------------------------------------------------------------------------

  Frequencies (cm-1) [NB: Negative implies an imaginary mode]:

   86.33  121.31  132.15  166.31  189.21  194.95  210.56  230.09  239.91
  243.38  251.97  258.39  268.65  280.16  287.99  297.64  311.37  317.75
  327.21  334.87  345.87  356.03  363.94  376.96  379.42  382.01  387.07
  399.79  407.96  417.44  421.16  424.33  437.29  444.53  449.12  453.61
  461.65  476.70  483.88  489.68  493.97  502.18  513.87  524.91  530.28
  532.02  539.45  543.44  551.44  561.21  565.56  575.66  580.81  592.89
  597.83  606.22  609.35  620.52  630.89  639.23  644.23  649.66  659.69
  668.84  676.20  683.63  691.49  700.26  704.09  711.58  717.87  720.22
  732.79  740.96  748.27  759.08  764.57  775.29  779.23  788.56  797.02
  804.09  806.69  818.38  830.41  837.18  848.65  856.78  861.68  866.99
  880.28  889.13  892.28  903.83  914.38  928.91  934.29  943.97  948.85
  952.42  970.00  977.27  977.79  985.47  993.97  998.32 1006.98 1013.50
 1023.13 1027.18 1031.05 1047.48 1057.67 1063.70 1064.91 1084.24 1089.89
 1096.83 1103.22 1107.86 1114.98 1126.55 1136.28 1143.27 1157.74 1165.35
 1168.71 1179.30 1188.58 1198.13 1209.26 1218.90 1228.08 1242.36 1249.62
 1260.84 1270.01 1280.95 1282.34 1288.79 1302.36 1311.28 1317.73 1327.80
 1340.95 1347.79 1357.28 1363.51 1373.17 1388.02 1403.36 1414.92 1425.64
 1428.90 1440.74 1455.62 1460.81 1475.36 1486.92 1495.91 1510.25 1538.01
 1551.83 1558.02 1575.06 1584.39 1590.26 1594.90 1607.77 1668.55 1720.63
 1757.95 1779.14 1793.97 1816.88 1869.14 1874.92 1921.04 1935.80 1960.16
 1977.26 2057.12 2123.79 2167.75 2328.51 2478.77 2544.70 2563.59 2911.22
 2950.81 3168.99 3205.87


--------------------------------------------------------------------------------
  K point     19 =   0.062500  0.312500  0.312500  Weight =    0.004
--------------------------------------------------------------------------------

  Frequencies (cm-1) [NB: Negative implies an imaginary mode]:

   98.38  122.22  145.49  166.50  189.70  199.49  209.00  226.51  235.08
  240.78  249.95  262.29  267.11  278.68  285.51  290.91  306.77  317.88
  328.38  337.26  349.20  358.46  366.51  374.58  382.77  390.88  392.71
  397.73  405.08  420.22  421.84  428.46  435.95  441.34  447.27  456.33
  465.29  482.92  484.83  488.18  495.91  503.59  511.68  520.76  525.99
  534.38  538.74  543.01  551.14  561.04  564.11  573.26  579.14  589.87
  595.46  602.67  610.66  616.69  628.20  638.54  641.73  646.86  656.20
  666.96  671.78  681.76  688.71  698.16  702.85  714.14  721.38  726.13
  734.22  741.30  752.73  758.03  767.03  776.59  780.44  785.49  795.55
  807.14  811.51  817.58  831.04  835.59  853.37  856.24  862.84  865.05
  880.55  885.16  894.39  904.45  916.82  931.83  937.65  947.57  952.28
  954.13  966.16  970.35  976.85  981.64  993.08  998.20 1005.06 1011.22
 1025.00 1029.82 1034.52 1045.29 1058.06 1059.54 1069.54 1084.00 1090.02
 1096.43 1103.48 1107.26 1116.91 1128.25 1135.53 1140.85 1157.93 1163.40
 1168.13 1180.28 1186.41 1199.70 1212.00 1217.11 1225.01 1242.63 1250.97
 1260.60 1270.28 1280.30 1282.84 1290.01 1302.67 1310.42 1317.44 1328.19
 1341.44 1345.06 1358.41 1363.45 1372.99 1389.39 1403.54 1416.91 1425.40
 1427.80 1441.95 1452.05 1461.32 1475.91 1487.45 1496.55 1510.43 1537.44
 1551.41 1558.86 1573.11 1584.37 1590.96 1595.78 1607.95 1668.12 1720.45
 1757.97 1779.19 1794.00 1816.87 1869.06 1875.03 1921.04 1936.68 1960.16
 1976.47 2057.12 2123.79 2167.75 2328.51 2478.76 2544.72 2563.59 2911.22
 2950.80 3168.99 3205.87


--------------------------------------------------------------------------------
  K point     20 =   0.062500  0.312500  0.437500  Weight =    0.004
--------------------------------------------------------------------------------

  Frequencies (cm-1) [NB: Negative implies an imaginary mode]:

  112.09  123.70  159.37  167.32  181.26  194.06  203.30  224.70  232.70
  243.76  252.30  262.77  268.74  274.58  286.36  294.36  305.10  319.90
  330.56  337.22  345.58  356.66  364.91  371.21  380.03  395.42  396.88
  400.61  408.80  418.40  425.18  431.87  433.21  443.92  446.87  459.10
  470.85  480.04  483.56  492.46  496.26  503.14  509.99  515.26  523.03
  533.48  543.77  548.62  554.61  556.39  563.16  574.23  575.34  583.23
  589.69  602.23  608.70  617.83  625.90  634.07  638.80  651.49  655.31
  665.09  669.30  678.41  686.26  696.69  702.53  713.56  724.79  731.87
  732.85  741.76  755.00  757.97  768.59  775.82  780.95  787.58  797.97
  808.36  812.72  818.16  831.40  833.10  849.30  856.98  861.34  869.34
  881.82  887.37  894.35  909.82  919.02  933.18  939.04  945.47  951.41
  956.44  961.52  965.00  974.23  981.26  991.19 1000.21 1004.89 1010.27
 1024.05 1032.31 1039.07 1045.14 1054.53 1060.13 1073.11 1082.88 1088.70
 1096.28 1102.57 1109.52 1117.68 1127.40 1135.50 1141.46 1155.69 1163.20
 1168.89 1178.99 1185.53 1200.16 1212.70 1218.58 1223.51 1242.60 1253.14
 1260.08 1270.19 1276.59 1284.36 1291.06 1302.62 1309.27 1317.19 1328.02
 1337.86 1347.81 1358.89 1365.37 1373.07 1389.58 1404.51 1417.65 1422.77
 1428.76 1443.19 1449.06 1461.64 1476.33 1487.81 1497.21 1510.73 1536.86
 1550.85 1559.37 1572.01 1584.49 1591.58 1596.12 1608.15 1667.80 1720.31
 1757.99 1779.24 1794.02 1816.84 1868.98 1875.11 1921.06 1937.33 1960.17
 1975.89 2057.12 2123.79 2167.75 2328.52 2478.76 2544.74 2563.58 2911.22
 2950.79 3168.99 3205.87


--------------------------------------------------------------------------------
  K point     21 =   0.062500  0.312500  0.562500  Weight =    0.004
--------------------------------------------------------------------------------

  Frequencies (cm-1) [NB: Negative implies an imaginary mode]:

  114.18  134.57  154.44  167.17  176.62  188.92  207.89  223.69  231.61
  244.71  253.55  261.81  271.18  275.45  283.86  295.51  304.39  323.67
  328.93  335.28  344.99  355.51  365.13  368.48  376.41  393.87  399.83
  402.23  408.68  416.62  428.10  430.91  435.84  442.38  451.44  459.85
  471.45  477.03  484.17  491.83  497.89  502.65  506.89  520.20  523.29
  532.44  544.64  548.61  551.96  558.40  564.11  569.49  578.53  582.94
  590.99  604.09  609.15  618.06  622.60  629.89  641.70  648.52  657.31
  665.02  670.20  676.73  686.06  694.86  703.44  711.37  724.92  730.98
  735.40  745.36  751.15  758.18  768.80  774.89  780.26  789.08  802.42
  808.35  812.33  817.08  830.79  835.68  843.26  856.06  861.71  873.24
  884.81  890.57  892.66  913.72  921.60  930.73  936.82  942.55  948.33
  953.74  960.97  965.86  971.67  980.47  990.61 1002.27 1004.88 1013.82
 1020.77 1032.83 1041.20 1048.15 1052.42 1061.32 1073.78 1081.54 1089.78
 1095.57 1103.24 1110.54 1115.99 1123.86 1136.94 1145.12 1154.05 1162.44
 1170.53 1177.78 1185.08 1198.67 1213.21 1220.29 1225.06 1243.05 1253.53
 1260.58 1269.88 1272.57 1285.01 1291.81 1301.44 1309.17 1316.72 1326.73
 1336.72 1350.53 1358.62 1368.04 1373.76 1388.64 1405.69 1415.31 1421.71
 1429.30 1443.37 1449.56 1461.16 1476.42 1487.95 1497.55 1510.92 1536.62
 1550.38 1559.39 1572.15 1584.70 1591.98 1595.71 1608.23 1667.78 1720.30
 1758.00 1779.26 1794.02 1816.82 1868.95 1875.12 1921.08 1937.33 1960.17
 1975.88 2057.12 2123.79 2167.75 2328.52 2478.76 2544.74 2563.58 2911.22
 2950.79 3168.99 3205.87


--------------------------------------------------------------------------------
  K point     22 =   0.062500  0.312500  0.687500  Weight =    0.004
--------------------------------------------------------------------------------

  Frequencies (cm-1) [NB: Negative implies an imaginary mode]:

  112.61  123.96  144.75  168.96  183.45  188.76  213.61  225.96  237.80
  244.25  249.10  255.55  269.22  275.59  290.47  298.15  304.53  321.10
  325.90  333.09  347.39  356.19  362.24  366.89  373.19  389.57  395.41
  402.99  412.84  416.55  426.61  429.69  435.71  443.62  450.90  462.70
  468.92  475.61  483.40  488.32  495.03  505.14  514.97  520.19  526.57
  531.58  543.57  545.29  550.49  557.02  566.06  569.98  582.81  590.68
  593.12  605.37  610.16  620.48  626.41  627.84  639.51  647.58  656.83
  668.13  672.53  678.94  685.66  696.03  705.42  707.85  721.25  732.04
  736.50  742.29  751.75  757.41  766.28  773.63  780.44  788.74  800.47
  807.15  812.93  819.07  831.30  833.72  844.32  855.77  862.52  873.01
  887.78  890.80  892.66  908.64  923.12  925.99  933.40  942.06  948.93
  954.36  958.25  967.07  974.97  980.26  990.64 1002.04 1006.58 1015.33
 1019.72 1033.28 1040.49 1047.82 1051.86 1063.54 1072.66 1083.13 1091.40
 1095.38 1102.45 1110.56 1115.69 1119.31 1138.07 1148.08 1155.58 1162.29
 1168.28 1180.87 1184.00 1196.52 1213.02 1222.49 1227.41 1243.95 1251.25
 1262.38 1267.47 1272.14 1284.95 1291.51 1299.73 1310.83 1316.11 1325.39
 1336.86 1352.44 1358.90 1369.02 1374.93 1387.33 1406.60 1410.82 1422.19
 1430.05 1442.69 1452.52 1460.05 1476.51 1487.46 1497.53 1510.89 1536.73
 1550.39 1558.95 1573.38 1584.91 1591.82 1594.89 1608.11 1668.09 1720.41
 1757.99 1779.23 1793.99 1816.81 1868.97 1875.05 1921.09 1936.69 1960.17
 1976.46 2057.12 2123.79 2167.75 2328.51 2478.76 2544.72 2563.59 2911.22
 2950.80 3168.99 3205.87


--------------------------------------------------------------------------------
  K point     23 =   0.062500  0.312500  0.812500  Weight =    0.004
--------------------------------------------------------------------------------

  Frequencies (cm-1) [NB: Negative implies an imaginary mode]:

   97.49  111.42  144.98  166.08  182.66  194.16  216.59  225.53  237.38
  242.57  250.97  260.87  270.41  281.54  290.18  302.10  310.82  316.03
  324.62  331.06  343.19  351.05  360.55  364.87  372.35  387.78  394.17
  403.16  409.81  414.34  426.82  427.55  436.45  444.96  448.61  460.38
  471.23  474.13  479.96  484.59  494.99  507.32  514.13  522.87  528.75
  534.80  540.58  543.56  553.02  559.11  566.85  575.86  585.48  587.78
  597.71  606.99  609.05  621.82  628.65  636.49  639.29  648.48  659.35
  669.09  674.98  683.45  688.61  696.04  703.11  707.01  721.29  731.77
  734.33  738.92  749.61  757.53  764.25  770.32  781.18  791.18  795.73
  804.56  812.62  819.45  831.00  836.37  843.07  853.59  864.77  869.84
  887.94  890.70  895.57  903.81  918.91  923.45  930.14  941.81  947.33
  952.36  962.73  971.66  980.22  982.67  991.34 1000.39 1006.51 1014.23
 1023.31 1032.84 1036.60 1044.33 1053.72 1063.97 1072.99 1083.56 1091.31
 1097.49 1101.08 1108.75 1114.82 1120.22 1137.83 1148.78 1158.53 1161.44
 1168.12 1181.22 1185.53 1195.22 1211.52 1224.79 1228.57 1244.37 1249.18
 1262.59 1266.83 1273.63 1284.16 1290.14 1299.40 1312.60 1316.34 1324.71
 1337.00 1353.35 1359.71 1368.28 1374.84 1386.50 1406.21 1408.47 1422.89
 1431.26 1441.51 1455.40 1459.41 1476.66 1486.39 1497.13 1510.71 1537.10
 1550.97 1558.16 1575.24 1585.03 1590.82 1594.28 1607.89 1668.52 1720.60
 1757.97 1779.18 1793.95 1816.83 1869.05 1874.95 1921.09 1935.81 1960.16
 1977.25 2057.13 2123.79 2167.75 2328.51 2478.77 2544.70 2563.59 2911.22
 2950.81 3168.99 3205.87


--------------------------------------------------------------------------------
  K point     24 =   0.062500  0.312500  0.937500  Weight =    0.004
--------------------------------------------------------------------------------

  Frequencies (cm-1) [NB: Negative implies an imaginary mode]:

   90.41   99.04  140.06  165.81  180.14  192.61  216.82  227.20  241.02
  245.63  250.93  269.28  272.48  282.25  284.76  308.32  314.27  317.34
  323.41  331.85  338.57  349.65  358.08  362.92  373.14  386.28  393.92
  400.25  405.72  417.26  422.37  430.60  435.69  444.36  446.82  455.69
  464.78  472.08  482.68  485.80  495.85  506.14  516.57  521.80  529.30
  536.40  538.69  545.87  555.53  560.35  568.69  577.10  585.50  590.67
  598.18  601.75  609.10  623.29  632.50  639.27  643.97  652.43  663.37
  670.12  675.60  685.47  694.42  697.31  699.81  708.90  721.29  725.80
  727.89  743.12  745.81  758.08  762.83  769.18  782.22  789.77  794.91
  805.67  810.46  816.70  830.36  835.24  844.02  851.96  863.56  870.72
  885.82  889.22  898.33  902.91  915.39  923.27  929.11  939.54  946.29
  949.85  969.06  976.34  980.91  986.59  993.77 1000.75 1004.99 1016.36
 1023.96 1028.04 1033.04 1044.21 1056.01 1062.06 1072.89 1082.95 1090.74
 1097.19 1100.82 1108.88 1113.84 1124.10 1136.13 1148.28 1158.13 1162.96
 1170.28 1178.91 1188.47 1195.33 1209.08 1224.53 1230.30 1241.86 1250.15
 1261.52 1267.63 1276.45 1283.06 1288.71 1300.60 1312.32 1317.72 1325.32
 1337.28 1353.35 1360.06 1365.57 1374.30 1386.09 1404.44 1410.04 1423.52
 1432.14 1440.16 1456.54 1460.36 1476.35 1485.67 1496.47 1510.48 1537.67
 1551.70 1557.42 1576.79 1584.91 1589.70 1594.01 1607.73 1668.83 1720.74
 1757.95 1779.13 1793.93 1816.85 1869.13 1874.86 1921.08 1935.20 1960.16
 1977.79 2057.13 2123.79 2167.75 2328.50 2478.77 2544.68 2563.59 2911.22
 2950.81 3168.98 3205.87


--------------------------------------------------------------------------------
  K point     25 =   0.062500  0.437500  0.062500  Weight =    0.004
--------------------------------------------------------------------------------

  Frequencies (cm-1) [NB: Negative implies an imaginary mode]:

  117.93  132.32  137.25  156.07  172.75  206.68  212.28  235.10  238.57
  242.11  251.05  261.14  269.16  279.19  285.33  293.69  315.37  320.36
  324.95  332.51  341.07  348.40  361.10  368.97  372.19  381.81  390.17
  400.07  408.57  415.88  417.23  424.49  433.24  438.57  447.71  457.45
  458.80  470.33  485.86  492.73  500.91  506.82  517.83  520.70  528.09
  535.95  541.45  545.84  550.22  560.27  569.26  581.26  585.16  589.89
  595.74  602.78  612.72  623.07  630.79  642.79  647.38  654.16  666.66
  673.52  675.25  686.64  692.28  698.23  705.52  710.76  714.79  719.73
  730.73  736.20  748.20  757.62  760.43  768.44  783.11  787.65  794.22
  801.58  809.30  819.52  828.55  838.06  848.66  856.70  862.46  874.26
  881.63  890.15  892.10  901.82  915.61  921.23  935.37  941.00  942.93
  948.62  968.09  979.53  985.50  989.96  993.72  999.00 1007.04 1012.25
 1019.60 1027.87 1031.32 1045.22 1058.05 1061.71 1069.70 1081.25 1092.29
 1098.38 1100.85 1112.26 1112.90 1124.41 1132.98 1145.81 1157.98 1165.18
 1167.83 1179.07 1189.98 1198.17 1210.47 1223.12 1231.22 1243.31 1249.23
 1259.64 1267.74 1275.55 1283.35 1286.80 1303.55 1311.77 1316.78 1325.75
 1337.75 1354.42 1361.17 1364.66 1373.72 1385.18 1403.95 1411.56 1424.14
 1429.39 1439.68 1457.47 1461.16 1478.40 1484.84 1496.52 1509.20 1537.96
 1551.61 1557.96 1576.90 1584.47 1589.23 1594.28 1607.76 1668.84 1720.78
 1757.96 1779.10 1793.90 1816.88 1869.43 1874.48 1921.10 1935.20 1960.22
 1977.79 2057.11 2123.79 2167.75 2328.50 2478.77 2544.68 2563.59 2911.22
 2950.81 3168.98 3205.87


--------------------------------------------------------------------------------
  K point     26 =   0.062500  0.437500  0.187500  Weight =    0.004
--------------------------------------------------------------------------------

  Frequencies (cm-1) [NB: Negative implies an imaginary mode]:

  113.72  128.74  150.73  157.30  171.76  201.80  211.92  232.56  238.64
  247.34  250.60  256.29  264.90  279.61  287.85  293.46  307.85  320.16
  326.19  335.94  343.26  351.95  365.73  369.90  378.92  384.13  388.26
  399.27  412.26  413.94  419.75  422.29  433.98  439.86  448.06  454.48
  466.47  476.21  484.61  493.26  497.20  508.33  512.90  522.26  526.71
  532.00  541.39  544.89  551.91  561.76  567.37  574.05  582.77  588.36
  597.53  606.95  611.57  620.72  628.83  639.04  645.09  650.05  663.45
  672.08  675.32  686.00  690.50  696.49  701.49  708.81  719.03  722.52
  732.36  740.09  747.32  760.36  762.04  771.90  783.58  787.98  793.69
  803.56  806.21  821.87  832.38  835.59  847.54  856.77  866.34  872.27
  880.53  889.08  893.36  901.41  915.37  923.18  935.77  944.77  947.70
  951.35  967.60  977.66  983.98  985.52  993.39  995.48 1007.06 1011.55
 1019.54 1028.65 1031.86 1045.88 1057.91 1063.94 1066.93 1083.63 1093.42
[...]
--------------------------------------------------------------------------------
  Zero point energy            =       12.010487 eV
  Entropy                      =        0.000214 eV/K
                               =       20.629796 J/(mol.K)
  Helmholtz free-energy        =     -410.026404 eV
                               =   -39561.276707 kJmol-1
  Free energy (equipartition)  =     -418.449830 eV
  - T*S       (equipartition)  =        2.259052 eV
  Uvib        (equipartition)  =        1.323623 eV
  Mean kinetic energy          =        6.011603 eV
  Heat capacity - const volume =        0.000570 eV/K
                               =       55.005895 J/(mol.K)
--------------------------------------------------------------------------------
  Phonon properties (per mole of unit cells): Temperature =     90.000 K
--------------------------------------------------------------------------------
  Zero point energy            =       12.010487 eV
  Entropy                      =        0.000291 eV/K
                               =       28.054290 J/(mol.K)
  Helmholtz free-energy        =     -410.028918 eV
                               =   -39561.519223 kJmol-1
  Free energy (equipartition)  =     -418.177384 eV
  - T*S       (equipartition)  =        2.366045 eV
  Uvib        (equipartition)  =        1.489076 eV
  Mean kinetic energy          =        6.014878 eV
  Heat capacity - const volume =        0.000743 eV/K
                               =       71.651427 J/(mol.K)
--------------------------------------------------------------------------------
  Phonon properties (per mole of unit cells): Temperature =    100.000 K
--------------------------------------------------------------------------------
  Zero point energy            =       12.010487 eV
  Entropy                      =        0.000379 eV/K
                               =       36.527427 J/(mol.K)
  Helmholtz free-energy        =     -410.032256 eV
                               =   -39561.841289 kJmol-1
  Free energy (equipartition)  =     -417.923359 eV
  - T*S       (equipartition)  =        2.454617 eV
  Uvib        (equipartition)  =        1.654529 eV
  Mean kinetic energy          =        6.019054 eV
  Heat capacity - const volume =        0.000930 eV/K
                               =       89.722650 J/(mol.K)
--------------------------------------------------------------------------------
  Phonon properties (per mole of unit cells): Temperature =    110.000 K
--------------------------------------------------------------------------------
  Zero point energy            =       12.010487 eV
  Entropy                      =        0.000476 eV/K
                               =       45.973200 J/(mol.K)
  Helmholtz free-energy        =     -410.036523 eV
                               =   -39562.253014 kJmol-1
  Free energy (equipartition)  =     -417.685907 eV
  - T*S       (equipartition)  =        2.526616 eV
  Uvib        (equipartition)  =        1.819981 eV
  Mean kinetic energy          =        6.024198 eV
  Heat capacity - const volume =        0.001129 eV/K
                               =      108.971637 J/(mol.K)
--------------------------------------------------------------------------------
  Phonon properties (per mole of unit cells): Temperature =    120.000 K
--------------------------------------------------------------------------------
  Zero point energy            =       12.010487 eV
  Entropy                      =        0.000584 eV/K
                               =       56.315255 J/(mol.K)
  Helmholtz free-energy        =     -410.041816 eV
                               =   -39562.763740 kJmol-1
  Free energy (equipartition)  =     -417.463518 eV
  - T*S       (equipartition)  =        2.583553 eV
  Uvib        (equipartition)  =        1.985434 eV
  Mean kinetic energy          =        6.030365 eV
  Heat capacity - const volume =        0.001339 eV/K
                               =      129.182806 J/(mol.K)
--------------------------------------------------------------------------------
  Phonon properties (per mole of unit cells): Temperature =    130.000 K
--------------------------------------------------------------------------------
  Zero point energy            =       12.010487 eV
  Entropy                      =        0.000699 eV/K
                               =       67.479554 J/(mol.K)
  Helmholtz free-energy        =     -410.048225 eV
                               =   -39563.382059 kJmol-1
  Free energy (equipartition)  =     -417.254931 eV
  - T*S       (equipartition)  =        2.626687 eV
  Uvib        (equipartition)  =        2.150887 eV
  Mean kinetic energy          =        6.037600 eV
  Heat capacity - const volume =        0.001556 eV/K
                               =      150.171410 J/(mol.K)
--------------------------------------------------------------------------------
  Phonon properties (per mole of unit cells): Temperature =    140.000 K
--------------------------------------------------------------------------------
  Zero point energy            =       12.010487 eV
  Entropy                      =        0.000823 eV/K
                               =       79.395876 J/(mol.K)
  Helmholtz free-energy        =     -410.055830 eV
                               =   -39564.115838 kJmol-1
  Free energy (equipartition)  =     -417.059085 eV
  - T*S       (equipartition)  =        2.657080 eV
  Uvib        (equipartition)  =        2.316340 eV
  Mean kinetic energy          =        6.045940 eV
  Heat capacity - const volume =        0.001780 eV/K
                               =      171.780766 J/(mol.K)
--------------------------------------------------------------------------------
  Phonon properties (per mole of unit cells): Temperature =    150.000 K
--------------------------------------------------------------------------------
  Zero point energy            =       12.010487 eV
  Entropy                      =        0.000954 eV/K
                               =       91.998592 J/(mol.K)
  Helmholtz free-energy        =     -410.064706 eV
                               =   -39564.972264 kJmol-1
  Free energy (equipartition)  =     -416.875067 eV
  - T*S       (equipartition)  =        2.675645 eV
  Uvib        (equipartition)  =        2.481793 eV
  Mean kinetic energy          =        6.055412 eV
  Heat capacity - const volume =        0.002009 eV/K
                               =      193.878772 J/(mol.K)
--------------------------------------------------------------------------------
  Phonon properties (per mole of unit cells): Temperature =    160.000 K
--------------------------------------------------------------------------------
  Zero point energy            =       12.010487 eV
  Entropy                      =        0.001091 eV/K
                               =      105.226943 J/(mol.K)
  Helmholtz free-energy        =     -410.074921 eV
                               =   -39565.957894 kJmol-1
  Free energy (equipartition)  =     -416.702087 eV
  - T*S       (equipartition)  =        2.683173 eV
  Uvib        (equipartition)  =        2.647246 eV
  Mean kinetic energy          =        6.066040 eV
  Heat capacity - const volume =        0.002242 eV/K
                               =      216.354169 J/(mol.K)
--------------------------------------------------------------------------------
  Phonon properties (per mole of unit cells): Temperature =    170.000 K
--------------------------------------------------------------------------------
  Zero point energy            =       12.010487 eV
  Entropy                      =        0.001234 eV/K
                               =      119.025015 J/(mol.K)
  Helmholtz free-energy        =     -410.086538 eV
                               =   -39567.078702 kJmol-1
  Free energy (equipartition)  =     -416.539454 eV
  - T*S       (equipartition)  =        2.680352 eV
  Uvib        (equipartition)  =        2.812699 eV
  Mean kinetic energy          =        6.077841 eV
  Heat capacity - const volume =        0.002478 eV/K
                               =      239.112906 J/(mol.K)
--------------------------------------------------------------------------------
  Phonon properties (per mole of unit cells): Temperature =    180.000 K
--------------------------------------------------------------------------------
  Zero point energy            =       12.010487 eV
  Entropy                      =        0.001382 eV/K
                               =      133.341517 J/(mol.K)
  Helmholtz free-energy        =     -410.099612 eV
                               =   -39568.340122 kJmol-1
  Free energy (equipartition)  =     -416.386560 eV
  - T*S       (equipartition)  =        2.667793 eV
  Uvib        (equipartition)  =        2.978151 eV
  Mean kinetic energy          =        6.090826 eV
  Heat capacity - const volume =        0.002716 eV/K
                               =      262.074860 J/(mol.K)
--------------------------------------------------------------------------------
  Phonon properties (per mole of unit cells): Temperature =    190.000 K
--------------------------------------------------------------------------------
  Zero point energy            =       12.010487 eV
  Entropy                      =        0.001535 eV/K
                               =      148.129461 J/(mol.K)
  Helmholtz free-energy        =     -410.114194 eV
                               =   -39569.747103 kJmol-1
  Free energy (equipartition)  =     -416.242863 eV
  - T*S       (equipartition)  =        2.646038 eV
  Uvib        (equipartition)  =        3.143604 eV
  Mean kinetic energy          =        6.105005 eV
  Heat capacity - const volume =        0.002956 eV/K
                               =      285.171035 J/(mol.K)
--------------------------------------------------------------------------------
  Phonon properties (per mole of unit cells): Temperature =    200.000 K
--------------------------------------------------------------------------------
  Zero point energy            =       12.010487 eV
  Entropy                      =        0.001693 eV/K
                               =      163.345783 J/(mol.K)
  Helmholtz free-energy        =     -410.130332 eV
                               =   -39571.304139 kJmol-1
  Free energy (equipartition)  =     -416.107877 eV
  - T*S       (equipartition)  =        2.615571 eV
  Uvib        (equipartition)  =        3.309057 eV
  Mean kinetic energy          =        6.120384 eV
  Heat capacity - const volume =        0.003196 eV/K
                               =      308.341279 J/(mol.K)
--------------------------------------------------------------------------------
  Phonon properties (per mole of unit cells): Temperature =    210.000 K
--------------------------------------------------------------------------------
  Zero point energy            =       12.010487 eV
  Entropy                      =        0.001855 eV/K
                               =      178.950971 J/(mol.K)
  Helmholtz free-energy        =     -410.148067 eV
                               =   -39573.015314 kJmol-1
  Free energy (equipartition)  =     -415.981167 eV
  - T*S       (equipartition)  =        2.576828 eV
  Uvib        (equipartition)  =        3.474510 eV
  Mean kinetic energy          =        6.136963 eV
  Heat capacity - const volume =        0.003436 eV/K
                               =      331.532482 J/(mol.K)
--------------------------------------------------------------------------------
  Phonon properties (per mole of unit cells): Temperature =    220.000 K
--------------------------------------------------------------------------------
  Zero point energy            =       12.010487 eV
  Entropy                      =        0.002020 eV/K
                               =      194.908690 J/(mol.K)
  Helmholtz free-energy        =     -410.167438 eV
                               =   -39574.884333 kJmol-1
  Free energy (equipartition)  =     -415.862340 eV
  - T*S       (equipartition)  =        2.530203 eV
  Uvib        (equipartition)  =        3.639963 eV
  Mean kinetic energy          =        6.154744 eV
  Heat capacity - const volume =        0.003676 eV/K
                               =      354.697224 J/(mol.K)
--------------------------------------------------------------------------------
  Phonon properties (per mole of unit cells): Temperature =    230.000 K
--------------------------------------------------------------------------------
  Zero point energy            =       12.010487 eV
  Entropy                      =        0.002189 eV/K
                               =      211.185453 J/(mol.K)
  Helmholtz free-energy        =     -410.188480 eV
                               =   -39576.914551 kJmol-1
  Free energy (equipartition)  =     -415.751035 eV
  - T*S       (equipartition)  =        2.476054 eV
  Uvib        (equipartition)  =        3.805416 eV
  Mean kinetic energy          =        6.173724 eV
  Heat capacity - const volume =        0.003916 eV/K
                               =      377.792767 J/(mol.K)
--------------------------------------------------------------------------------
  Phonon properties (per mole of unit cells): Temperature =    240.000 K
--------------------------------------------------------------------------------
  Zero point energy            =       12.010487 eV
  Entropy                      =        0.002360 eV/K
                               =      227.750317 J/(mol.K)
  Helmholtz free-energy        =     -410.211224 eV
                               =   -39579.109002 kJmol-1
  Free energy (equipartition)  =     -415.646926 eV
  - T*S       (equipartition)  =        2.414710 eV
  Uvib        (equipartition)  =        3.970868 eV
  Mean kinetic energy          =        6.193898 eV
  Heat capacity - const volume =        0.004154 eV/K
                               =      400.780340 J/(mol.K)
--------------------------------------------------------------------------------
  Phonon properties (per mole of unit cells): Temperature =    250.000 K
--------------------------------------------------------------------------------
  Zero point energy            =       12.010487 eV
  Entropy                      =        0.002535 eV/K
                               =      244.574616 J/(mol.K)
  Helmholtz free-energy        =     -410.235699 eV
                               =   -39581.470422 kJmol-1
  Free energy (equipartition)  =     -415.549713 eV
  - T*S       (equipartition)  =        2.346470 eV
  Uvib        (equipartition)  =        4.136321 eV
  Mean kinetic energy          =        6.215260 eV
  Heat capacity - const volume =        0.004391 eV/K
                               =      423.624637 J/(mol.K)
--------------------------------------------------------------------------------
  Phonon properties (per mole of unit cells): Temperature =    260.000 K
--------------------------------------------------------------------------------
  Zero point energy            =       12.010487 eV
  Entropy                      =        0.002712 eV/K
                               =      261.631737 J/(mol.K)
  Helmholtz free-energy        =     -410.261929 eV
                               =   -39584.001271 kJmol-1
  Free energy (equipartition)  =     -415.459120 eV
  - T*S       (equipartition)  =        2.271610 eV
  Uvib        (equipartition)  =        4.301774 eV
  Mean kinetic energy          =        6.237801 eV
  Heat capacity - const volume =        0.004626 eV/K
                               =      446.293469 J/(mol.K)
--------------------------------------------------------------------------------
  Phonon properties (per mole of unit cells): Temperature =    270.000 K
--------------------------------------------------------------------------------
  Zero point energy            =       12.010487 eV
  Entropy                      =        0.002891 eV/K
                               =      278.896921 J/(mol.K)
  Helmholtz free-energy        =     -410.289939 eV
                               =   -39586.703750 kJmol-1
  Free energy (equipartition)  =     -415.374893 eV
  - T*S       (equipartition)  =        2.190385 eV
  Uvib        (equipartition)  =        4.467227 eV
  Mean kinetic energy          =        6.261512 eV
  Heat capacity - const volume =        0.004858 eV/K
                               =      468.757522 J/(mol.K)
--------------------------------------------------------------------------------
  Phonon properties (per mole of unit cells): Temperature =    280.000 K
--------------------------------------------------------------------------------
  Zero point energy            =       12.010487 eV
  Entropy                      =        0.003071 eV/K
                               =      296.347091 J/(mol.K)
  Helmholtz free-energy        =     -410.319747 eV
                               =   -39589.579826 kJmol-1
  Free energy (equipartition)  =     -415.296794 eV
  - T*S       (equipartition)  =        2.103031 eV
  Uvib        (equipartition)  =        4.632680 eV
  Mean kinetic energy          =        6.286381 eV
  Heat capacity - const volume =        0.005089 eV/K
                               =      490.990192 J/(mol.K)
--------------------------------------------------------------------------------
  Phonon properties (per mole of unit cells): Temperature =    290.000 K
--------------------------------------------------------------------------------
  Zero point energy            =       12.010487 eV
  Entropy                      =        0.003254 eV/K
                               =      313.960715 J/(mol.K)
  Helmholtz free-energy        =     -410.351373 eV
                               =   -39592.631237 kJmol-1
  Free energy (equipartition)  =     -415.224606 eV
  - T*S       (equipartition)  =        2.009767 eV
  Uvib        (equipartition)  =        4.798133 eV
  Mean kinetic energy          =        6.312395 eV
  Heat capacity - const volume =        0.005317 eV/K
                               =      512.967452 J/(mol.K)
--------------------------------------------------------------------------------
  Phonon properties (per mole of unit cells): Temperature =    300.000 K
--------------------------------------------------------------------------------
  Zero point energy            =       12.010487 eV
  Entropy                      =        0.003438 eV/K
                               =      331.717677 J/(mol.K)
  Helmholtz free-energy        =     -410.384832 eV
                               =   -39595.859517 kJmol-1
  Free energy (equipartition)  =     -415.158124 eV
  - T*S       (equipartition)  =        1.910796 eV
  Uvib        (equipartition)  =        4.963586 eV
  Mean kinetic energy          =        6.339542 eV
  Heat capacity - const volume =        0.005541 eV/K
                               =      534.667755 J/(mol.K)
--------------------------------------------------------------------------------

  Time to end of properties =      73.4777 seconds


  Peak dynamic memory used =       3.43 MB 


  Timing analysis for GULP :

--------------------------------------------------------------------------------
  Task / Subroutine                                          Time (Seconds)
--------------------------------------------------------------------------------
  Calculation of real space energy and derivatives                0.0859
  Calculation of Brenner energy and derivatives                  63.4789
  Calculation of phonons                                         73.1541
  Disk read/write operations to scratch files                     0.2570
--------------------------------------------------------------------------------
  Total CPU time                                                 73.4779
--------------------------------------------------------------------------------


  Job Finished at 20:05.59 29th July       2020                               

