********************************************************************************
*                       GENERAL UTILITY LATTICE PROGRAM                        *
*                                 Julian Gale                                  *
*                       Curtin Institute for Computation                       *
*                           Department of Chemistry                            *
*                    Curtin University, Western Australia                      *
********************************************************************************
* Version = 5.1.0 * Last modified = 25th January 2020                          *
********************************************************************************
*  single       - perform a single point run                                   *
*  property     - calculate properties for final geometry                      *
*  phonon       - calculate phonons for final geometry                         *
********************************************************************************
* ASE calculation                                                              *
********************************************************************************


  Job Started  at 18:11.04 14th August     2020                               

  Number of CPUs =     1


  Total number of configurations input =      1

********************************************************************************
*  Input for Configuration =   1                                               *
********************************************************************************

  Formula = C8                                                          

  Number of irreducible atoms/shells =       8


  Total number atoms/shells =       8

  Dimensionality = 3               :  Bulk   



  Cartesian lattice vectors (Angstroms) :

        3.614079    0.000000    0.000000
        0.000000    3.614079    0.000000
        0.000000    0.000000    3.614079

  Cell parameters (Angstroms/Degrees):

  a =       3.6141    alpha =  90.0000
  b =       3.6141    beta  =  90.0000
  c =       3.6141    gamma =  90.0000

  Initial cell volume =          47.205535 Angs**3

  Shrinking factors =      8     8     8

  Temperature of configuration =  10.00     K 

  Pressure of configuration =         0.000 GPa 

  Fractional coordinates of asymmetric unit :

--------------------------------------------------------------------------------
   No.  Atomic       x           y          z         Charge      Occupancy
        Label      (Frac)      (Frac)     (Frac)        (e)         (Frac)  
--------------------------------------------------------------------------------
      1 C     c    0.000000    0.000000    0.000000     0.00000    1.000000    
      2 C     c    0.000000    0.500000    0.500000     0.00000    1.000000    
      3 C     c    0.500000    0.500000    0.000000     0.00000    1.000000    
      4 C     c    0.500000    0.000000    0.500000     0.00000    1.000000    
      5 C     c    0.750000    0.250000    0.750000     0.00000    1.000000    
      6 C     c    0.250000    0.250000    0.250000     0.00000    1.000000    
      7 C     c    0.250000    0.750000    0.750000     0.00000    1.000000    
      8 C     c    0.750000    0.750000    0.250000     0.00000    1.000000    
--------------------------------------------------------------------------------


  Brillouin zone sampling points :

--------------------------------------------------------------------------------
  Point number          x          y          z            Weight
--------------------------------------------------------------------------------
        1           0.062500   0.062500   0.062500     0.00390625
        2           0.062500   0.062500   0.187500     0.00390625
        3           0.062500   0.062500   0.312500     0.00390625
        4           0.062500   0.062500   0.437500     0.00390625
        5           0.062500   0.062500   0.562500     0.00390625
        6           0.062500   0.062500   0.687500     0.00390625
        7           0.062500   0.062500   0.812500     0.00390625
        8           0.062500   0.062500   0.937500     0.00390625
        9           0.062500   0.187500   0.062500     0.00390625
       10           0.062500   0.187500   0.187500     0.00390625
       11           0.062500   0.187500   0.312500     0.00390625
       12           0.062500   0.187500   0.437500     0.00390625
       13           0.062500   0.187500   0.562500     0.00390625
       14           0.062500   0.187500   0.687500     0.00390625
       15           0.062500   0.187500   0.812500     0.00390625
       16           0.062500   0.187500   0.937500     0.00390625
       17           0.062500   0.312500   0.062500     0.00390625
       18           0.062500   0.312500   0.187500     0.00390625
       19           0.062500   0.312500   0.312500     0.00390625
       20           0.062500   0.312500   0.437500     0.00390625
       21           0.062500   0.312500   0.562500     0.00390625
       22           0.062500   0.312500   0.687500     0.00390625
       23           0.062500   0.312500   0.812500     0.00390625
       24           0.062500   0.312500   0.937500     0.00390625
       25           0.062500   0.437500   0.062500     0.00390625
       26           0.062500   0.437500   0.187500     0.00390625
       27           0.062500   0.437500   0.312500     0.00390625
       28           0.062500   0.437500   0.437500     0.00390625
       29           0.062500   0.437500   0.562500     0.00390625
       30           0.062500   0.437500   0.687500     0.00390625
       31           0.062500   0.437500   0.812500     0.00390625
       32           0.062500   0.437500   0.937500     0.00390625
       33           0.062500   0.562500   0.062500     0.00390625
       34           0.062500   0.562500   0.187500     0.00390625
       35           0.062500   0.562500   0.312500     0.00390625
       36           0.062500   0.562500   0.437500     0.00390625
       37           0.062500   0.562500   0.562500     0.00390625
       38           0.062500   0.562500   0.687500     0.00390625
       39           0.062500   0.562500   0.812500     0.00390625
       40           0.062500   0.562500   0.937500     0.00390625
       41           0.062500   0.687500   0.062500     0.00390625
       42           0.062500   0.687500   0.187500     0.00390625
       43           0.062500   0.687500   0.312500     0.00390625
       44           0.062500   0.687500   0.437500     0.00390625
       45           0.062500   0.687500   0.562500     0.00390625
       46           0.062500   0.687500   0.687500     0.00390625
       47           0.062500   0.687500   0.812500     0.00390625
       48           0.062500   0.687500   0.937500     0.00390625
       49           0.062500   0.812500   0.062500     0.00390625
       50           0.062500   0.812500   0.187500     0.00390625
       51           0.062500   0.812500   0.312500     0.00390625
       52           0.062500   0.812500   0.437500     0.00390625
       53           0.062500   0.812500   0.562500     0.00390625
       54           0.062500   0.812500   0.687500     0.00390625
       55           0.062500   0.812500   0.812500     0.00390625
       56           0.062500   0.812500   0.937500     0.00390625
       57           0.062500   0.937500   0.062500     0.00390625
       58           0.062500   0.937500   0.187500     0.00390625
       59           0.062500   0.937500   0.312500     0.00390625
       60           0.062500   0.937500   0.437500     0.00390625
       61           0.062500   0.937500   0.562500     0.00390625
       62           0.062500   0.937500   0.687500     0.00390625
       63           0.062500   0.937500   0.812500     0.00390625
       64           0.062500   0.937500   0.937500     0.00390625
       65           0.187500   0.062500   0.062500     0.00390625
       66           0.187500   0.062500   0.187500     0.00390625
       67           0.187500   0.062500   0.312500     0.00390625
       68           0.187500   0.062500   0.437500     0.00390625
       69           0.187500   0.062500   0.562500     0.00390625
       70           0.187500   0.062500   0.687500     0.00390625
       71           0.187500   0.062500   0.812500     0.00390625
       72           0.187500   0.062500   0.937500     0.00390625
       73           0.187500   0.187500   0.062500     0.00390625
       74           0.187500   0.187500   0.187500     0.00390625
       75           0.187500   0.187500   0.312500     0.00390625
       76           0.187500   0.187500   0.437500     0.00390625
       77           0.187500   0.187500   0.562500     0.00390625
       78           0.187500   0.187500   0.687500     0.00390625
       79           0.187500   0.187500   0.812500     0.00390625
       80           0.187500   0.187500   0.937500     0.00390625
       81           0.187500   0.312500   0.062500     0.00390625
       82           0.187500   0.312500   0.187500     0.00390625
       83           0.187500   0.312500   0.312500     0.00390625
       84           0.187500   0.312500   0.437500     0.00390625
       85           0.187500   0.312500   0.562500     0.00390625
       86           0.187500   0.312500   0.687500     0.00390625
       87           0.187500   0.312500   0.812500     0.00390625
       88           0.187500   0.312500   0.937500     0.00390625
       89           0.187500   0.437500   0.062500     0.00390625
       90           0.187500   0.437500   0.187500     0.00390625
       91           0.187500   0.437500   0.312500     0.00390625
       92           0.187500   0.437500   0.437500     0.00390625
       93           0.187500   0.437500   0.562500     0.00390625
       94           0.187500   0.437500   0.687500     0.00390625
       95           0.187500   0.437500   0.812500     0.00390625
       96           0.187500   0.437500   0.937500     0.00390625
       97           0.187500   0.562500   0.062500     0.00390625
       98           0.187500   0.562500   0.187500     0.00390625
       99           0.187500   0.562500   0.312500     0.00390625
      100           0.187500   0.562500   0.437500     0.00390625
      101           0.187500   0.562500   0.562500     0.00390625
      102           0.187500   0.562500   0.687500     0.00390625
      103           0.187500   0.562500   0.812500     0.00390625
      104           0.187500   0.562500   0.937500     0.00390625
      105           0.187500   0.687500   0.062500     0.00390625
      106           0.187500   0.687500   0.187500     0.00390625
      107           0.187500   0.687500   0.312500     0.00390625
      108           0.187500   0.687500   0.437500     0.00390625
      109           0.187500   0.687500   0.562500     0.00390625
      110           0.187500   0.687500   0.687500     0.00390625
      111           0.187500   0.687500   0.812500     0.00390625
      112           0.187500   0.687500   0.937500     0.00390625
      113           0.187500   0.812500   0.062500     0.00390625
      114           0.187500   0.812500   0.187500     0.00390625
      115           0.187500   0.812500   0.312500     0.00390625
      116           0.187500   0.812500   0.437500     0.00390625
      117           0.187500   0.812500   0.562500     0.00390625
      118           0.187500   0.812500   0.687500     0.00390625
      119           0.187500   0.812500   0.812500     0.00390625
      120           0.187500   0.812500   0.937500     0.00390625
      121           0.187500   0.937500   0.062500     0.00390625
      122           0.187500   0.937500   0.187500     0.00390625
      123           0.187500   0.937500   0.312500     0.00390625
      124           0.187500   0.937500   0.437500     0.00390625
      125           0.187500   0.937500   0.562500     0.00390625
      126           0.187500   0.937500   0.687500     0.00390625
      127           0.187500   0.937500   0.812500     0.00390625
      128           0.187500   0.937500   0.937500     0.00390625
      129           0.312500   0.062500   0.062500     0.00390625
      130           0.312500   0.062500   0.187500     0.00390625
      131           0.312500   0.062500   0.312500     0.00390625
      132           0.312500   0.062500   0.437500     0.00390625
      133           0.312500   0.062500   0.562500     0.00390625
      134           0.312500   0.062500   0.687500     0.00390625
      135           0.312500   0.062500   0.812500     0.00390625
      136           0.312500   0.062500   0.937500     0.00390625
      137           0.312500   0.187500   0.062500     0.00390625
      138           0.312500   0.187500   0.187500     0.00390625
      139           0.312500   0.187500   0.312500     0.00390625
      140           0.312500   0.187500   0.437500     0.00390625
      141           0.312500   0.187500   0.562500     0.00390625
      142           0.312500   0.187500   0.687500     0.00390625
      143           0.312500   0.187500   0.812500     0.00390625
      144           0.312500   0.187500   0.937500     0.00390625
      145           0.312500   0.312500   0.062500     0.00390625
      146           0.312500   0.312500   0.187500     0.00390625
      147           0.312500   0.312500   0.312500     0.00390625
      148           0.312500   0.312500   0.437500     0.00390625
      149           0.312500   0.312500   0.562500     0.00390625
      150           0.312500   0.312500   0.687500     0.00390625
      151           0.312500   0.312500   0.812500     0.00390625
      152           0.312500   0.312500   0.937500     0.00390625
      153           0.312500   0.437500   0.062500     0.00390625
      154           0.312500   0.437500   0.187500     0.00390625
      155           0.312500   0.437500   0.312500     0.00390625
      156           0.312500   0.437500   0.437500     0.00390625
      157           0.312500   0.437500   0.562500     0.00390625
      158           0.312500   0.437500   0.687500     0.00390625
      159           0.312500   0.437500   0.812500     0.00390625
      160           0.312500   0.437500   0.937500     0.00390625
      161           0.312500   0.562500   0.062500     0.00390625
      162           0.312500   0.562500   0.187500     0.00390625
      163           0.312500   0.562500   0.312500     0.00390625
      164           0.312500   0.562500   0.437500     0.00390625
      165           0.312500   0.562500   0.562500     0.00390625
      166           0.312500   0.562500   0.687500     0.00390625
      167           0.312500   0.562500   0.812500     0.00390625
      168           0.312500   0.562500   0.937500     0.00390625
      169           0.312500   0.687500   0.062500     0.00390625
      170           0.312500   0.687500   0.187500     0.00390625
      171           0.312500   0.687500   0.312500     0.00390625
      172           0.312500   0.687500   0.437500     0.00390625
      173           0.312500   0.687500   0.562500     0.00390625
      174           0.312500   0.687500   0.687500     0.00390625
      175           0.312500   0.687500   0.812500     0.00390625
      176           0.312500   0.687500   0.937500     0.00390625
      177           0.312500   0.812500   0.062500     0.00390625
      178           0.312500   0.812500   0.187500     0.00390625
      179           0.312500   0.812500   0.312500     0.00390625
      180           0.312500   0.812500   0.437500     0.00390625
      181           0.312500   0.812500   0.562500     0.00390625
      182           0.312500   0.812500   0.687500     0.00390625
      183           0.312500   0.812500   0.812500     0.00390625
      184           0.312500   0.812500   0.937500     0.00390625
      185           0.312500   0.937500   0.062500     0.00390625
      186           0.312500   0.937500   0.187500     0.00390625
      187           0.312500   0.937500   0.312500     0.00390625
      188           0.312500   0.937500   0.437500     0.00390625
      189           0.312500   0.937500   0.562500     0.00390625
      190           0.312500   0.937500   0.687500     0.00390625
      191           0.312500   0.937500   0.812500     0.00390625
      192           0.312500   0.937500   0.937500     0.00390625
      193           0.437500   0.062500   0.062500     0.00390625
      194           0.437500   0.062500   0.187500     0.00390625
      195           0.437500   0.062500   0.312500     0.00390625
      196           0.437500   0.062500   0.437500     0.00390625
      197           0.437500   0.062500   0.562500     0.00390625
      198           0.437500   0.062500   0.687500     0.00390625
      199           0.437500   0.062500   0.812500     0.00390625
      200           0.437500   0.062500   0.937500     0.00390625
      201           0.437500   0.187500   0.062500     0.00390625
      202           0.437500   0.187500   0.187500     0.00390625
      203           0.437500   0.187500   0.312500     0.00390625
      204           0.437500   0.187500   0.437500     0.00390625
      205           0.437500   0.187500   0.562500     0.00390625
      206           0.437500   0.187500   0.687500     0.00390625
      207           0.437500   0.187500   0.812500     0.00390625
      208           0.437500   0.187500   0.937500     0.00390625
      209           0.437500   0.312500   0.062500     0.00390625
      210           0.437500   0.312500   0.187500     0.00390625
      211           0.437500   0.312500   0.312500     0.00390625
      212           0.437500   0.312500   0.437500     0.00390625
      213           0.437500   0.312500   0.562500     0.00390625
      214           0.437500   0.312500   0.687500     0.00390625
      215           0.437500   0.312500   0.812500     0.00390625
      216           0.437500   0.312500   0.937500     0.00390625
      217           0.437500   0.437500   0.062500     0.00390625
      218           0.437500   0.437500   0.187500     0.00390625
      219           0.437500   0.437500   0.312500     0.00390625
      220           0.437500   0.437500   0.437500     0.00390625
      221           0.437500   0.437500   0.562500     0.00390625
      222           0.437500   0.437500   0.687500     0.00390625
      223           0.437500   0.437500   0.812500     0.00390625
      224           0.437500   0.437500   0.937500     0.00390625
      225           0.437500   0.562500   0.062500     0.00390625
      226           0.437500   0.562500   0.187500     0.00390625
      227           0.437500   0.562500   0.312500     0.00390625
      228           0.437500   0.562500   0.437500     0.00390625
      229           0.437500   0.562500   0.562500     0.00390625
      230           0.437500   0.562500   0.687500     0.00390625
      231           0.437500   0.562500   0.812500     0.00390625
      232           0.437500   0.562500   0.937500     0.00390625
      233           0.437500   0.687500   0.062500     0.00390625
      234           0.437500   0.687500   0.187500     0.00390625
      235           0.437500   0.687500   0.312500     0.00390625
      236           0.437500   0.687500   0.437500     0.00390625
      237           0.437500   0.687500   0.562500     0.00390625
      238           0.437500   0.687500   0.687500     0.00390625
      239           0.437500   0.687500   0.812500     0.00390625
      240           0.437500   0.687500   0.937500     0.00390625
      241           0.437500   0.812500   0.062500     0.00390625
      242           0.437500   0.812500   0.187500     0.00390625
      243           0.437500   0.812500   0.312500     0.00390625
      244           0.437500   0.812500   0.437500     0.00390625
      245           0.437500   0.812500   0.562500     0.00390625
      246           0.437500   0.812500   0.687500     0.00390625
      247           0.437500   0.812500   0.812500     0.00390625
      248           0.437500   0.812500   0.937500     0.00390625
      249           0.437500   0.937500   0.062500     0.00390625
      250           0.437500   0.937500   0.187500     0.00390625
      251           0.437500   0.937500   0.312500     0.00390625
      252           0.437500   0.937500   0.437500     0.00390625
      253           0.437500   0.937500   0.562500     0.00390625
      254           0.437500   0.937500   0.687500     0.00390625
      255           0.437500   0.937500   0.812500     0.00390625
      256           0.437500   0.937500   0.937500     0.00390625
--------------------------------------------------------------------------------


********************************************************************************
*  General input information                                                   *
********************************************************************************

  Species output for all configurations : 

--------------------------------------------------------------------------------
  Species    Type    Atomic    Atomic    Charge       Radii (Angs)     Library
                     Number     Mass       (e)     Cova   Ionic  VDW   Symbol
--------------------------------------------------------------------------------
    C        Core        6      12.01   0.000000   0.770  0.000  1.530          
--------------------------------------------------------------------------------


  Lattice summation method               =    Ewald          (3-D)
                                         =    Parry          (2-D)
                                         =    Saunders et al (1-D)
  Accuracy factor for lattice sums       =   12.000


  Time limit = Infinity

  Maximum range for interatomic potentials =    100000.000000 Angstroms

  Brenner et al 2002 potential to be used with explicit splines for P


********************************************************************************
*  Output for configuration   1                                                *
********************************************************************************


  Components of energy : 

--------------------------------------------------------------------------------
  Interatomic potentials     =           0.00000000 eV    
  Brenner potentials         =         -58.85950159 eV    
  Monopole - monopole (real) =           0.00000000 eV    
  Monopole - monopole (recip)=           0.00000000 eV    
  Monopole - monopole (total)=           0.00000000 eV    
--------------------------------------------------------------------------------
  Total lattice energy       =         -58.85950159 eV    
--------------------------------------------------------------------------------
  Total lattice energy       =           -5679.0422 kJ/(mole unit cells)
--------------------------------------------------------------------------------


  Elastic Constant Matrix: (Units=GPa)

-------------------------------------------------------------------------------
  Indices      1         2         3         4         5         6    
-------------------------------------------------------------------------------
       1    968.6148   85.9311   85.9311    0.0000    0.0000    0.0000
       2     85.9311  968.6148   85.9311    0.0000    0.0000    0.0000
       3     85.9311   85.9311  968.6148    0.0000    0.0000    0.0000
       4      0.0000    0.0000    0.0000  641.8682    0.0000    0.0000
       5      0.0000    0.0000    0.0000    0.0000  641.8682    0.0000
       6      0.0000    0.0000    0.0000    0.0000    0.0000  641.8682
-------------------------------------------------------------------------------

  Elastic Constant Tensor Eigenvalues: (Units=GPa)

-------------------------------------------------------------------------------
     1 =   641.8682     2 =   641.8682     3 =   641.8682
     4 =   882.6838     5 =   882.6838     6 =  1140.4770
-------------------------------------------------------------------------------


  Elastic Compliance Matrix: (Units=1/GPa)

-------------------------------------------------------------------------------
  Indices      1         2         3         4         5         6    
-------------------------------------------------------------------------------
       1    0.001048 -0.000085 -0.000085 -0.000000 -0.000000 -0.000000
       2   -0.000085  0.001048 -0.000085 -0.000000 -0.000000 -0.000000
       3   -0.000085 -0.000085  0.001048 -0.000000 -0.000000 -0.000000
       4   -0.000000 -0.000000 -0.000000  0.001558 -0.000000 -0.000000
       5   -0.000000 -0.000000 -0.000000 -0.000000  0.001558 -0.000000
       6   -0.000000 -0.000000 -0.000000 -0.000000 -0.000000  0.001558
-------------------------------------------------------------------------------

  Mechanical properties :

-------------------------------------------------------------------------------
  Convention :                    Reuss         Voigt         Hill
-------------------------------------------------------------------------------
  Bulk  Modulus (GPa)     =     380.15900     380.15900     380.15900
  Shear Modulus (GPa)     =     543.15411     561.65770     552.40591
-------------------------------------------------------------------------------
  Velocity S-wave (km/s)  =      12.67691      12.89104      12.78442
  Velocity P-wave (km/s)  =      18.07624      18.27704      18.17692
-------------------------------------------------------------------------------
  Compressibility (1/GPa) =    0.00263048
-------------------------------------------------------------------------------
  Stress axis :                     x             y             z
-------------------------------------------------------------------------------
  Youngs Moduli (GPa)     =     954.61043     954.61043     954.61043
-------------------------------------------------------------------------------
  Poissons Ratio (x)      =                     0.08149       0.08149
  Poissons Ratio (y)      =       0.08149                     0.08149
  Poissons Ratio (z)      =       0.08149       0.08149
-------------------------------------------------------------------------------


  Piezoelectric Strain Matrix: (Units=C/m**2)

-------------------------------------------------------------------------------
  Indices      1         2         3         4         5         6    
-------------------------------------------------------------------------------
       x    -0.00000  -0.00000  -0.00000  -0.00000  -0.00000  -0.00000
       y    -0.00000  -0.00000  -0.00000  -0.00000  -0.00000  -0.00000
       z    -0.00000  -0.00000  -0.00000  -0.00000  -0.00000  -0.00000
-------------------------------------------------------------------------------


  Piezoelectric Stress Matrix: (Units=10**-11 C/N)

-------------------------------------------------------------------------------
  Indices      1         2         3         4         5         6    
-------------------------------------------------------------------------------
       x     0.00000   0.00000   0.00000   0.00000   0.00000   0.00000
       y     0.00000   0.00000   0.00000   0.00000   0.00000   0.00000
       z     0.00000   0.00000   0.00000   0.00000   0.00000   0.00000
-------------------------------------------------------------------------------


  Static dielectric constant tensor : 

-------------------------------------------------------------------------------
              x         y         z
-------------------------------------------------------------------------------
       x     1.00000   0.00000   0.00000
       y     0.00000   1.00000   0.00000
       z     0.00000   0.00000   1.00000
--------------------------------------------------------------------------------

  Static refractive indices : 

-------------------------------------------------------------------------------
    1 =    1.00000      2 =    1.00000      3 =    1.00000
-------------------------------------------------------------------------------


  Phonon Calculation : 

  Number of k points for this configuration =      256

--------------------------------------------------------------------------------
  K point      1 =   0.062500  0.062500  0.062500  Weight =    0.004
--------------------------------------------------------------------------------

  Frequencies (cm-1) [NB: Negative implies an imaginary mode]:

  122.12  122.12  188.98 1017.29 1017.29 1017.29 1027.46 1027.46 1027.46
 1146.60 1146.60 1146.60 1180.33 1180.33 1180.33 1214.19 1214.19 1214.19
 1280.72 1280.72 1280.72 1483.88 1483.88 1488.42


--------------------------------------------------------------------------------
  K point      2 =   0.062500  0.062500  0.187500  Weight =    0.004
--------------------------------------------------------------------------------

  Frequencies (cm-1) [NB: Negative implies an imaginary mode]:

  239.14  253.44  339.80  926.61  933.51 1009.45 1009.45 1037.74 1037.74
 1074.07 1105.06 1105.06 1171.64 1171.64 1245.18 1245.18 1246.34 1254.03
 1293.33 1293.33 1345.29 1471.92 1472.64 1485.31


--------------------------------------------------------------------------------
  K point      3 =   0.062500  0.062500  0.312500  Weight =    0.004
--------------------------------------------------------------------------------

  Frequencies (cm-1) [NB: Negative implies an imaginary mode]:

  390.23  399.96  505.01  811.11  815.40  955.72 1007.01 1007.01 1045.90
 1045.90 1066.42 1066.42 1156.56 1156.56 1273.66 1273.66 1306.85 1306.85
 1313.15 1317.67 1396.39 1449.84 1450.05 1476.15


--------------------------------------------------------------------------------
  K point      4 =   0.062500  0.062500  0.437500  Weight =    0.004
--------------------------------------------------------------------------------

  Frequencies (cm-1) [NB: Negative implies an imaginary mode]:

  540.59  544.54  666.80  682.57  683.37  818.49 1012.81 1012.81 1034.52
 1034.52 1053.83 1053.83 1146.81 1146.81 1289.76 1289.76 1314.42 1314.42
 1370.24 1372.84 1415.95 1416.94 1433.86 1459.68


--------------------------------------------------------------------------------
  K point      5 =   0.062500  0.062500  0.562500  Weight =    0.004
--------------------------------------------------------------------------------

  Frequencies (cm-1) [NB: Negative implies an imaginary mode]:

  540.59  544.54  666.80  682.57  683.37  818.49 1012.81 1012.81 1034.52
 1034.52 1053.83 1053.83 1146.81 1146.81 1289.76 1289.76 1314.42 1314.42
 1370.24 1372.84 1415.95 1416.94 1433.86 1459.68


--------------------------------------------------------------------------------
  K point      6 =   0.062500  0.062500  0.687500  Weight =    0.004
--------------------------------------------------------------------------------

  Frequencies (cm-1) [NB: Negative implies an imaginary mode]:

  390.23  399.96  505.01  811.11  815.40  955.72 1007.01 1007.01 1045.90
 1045.90 1066.42 1066.42 1156.56 1156.56 1273.66 1273.66 1306.85 1306.85
 1313.15 1317.67 1396.39 1449.84 1450.05 1476.15


--------------------------------------------------------------------------------
  K point      7 =   0.062500  0.062500  0.812500  Weight =    0.004
--------------------------------------------------------------------------------

  Frequencies (cm-1) [NB: Negative implies an imaginary mode]:

  239.14  253.44  339.80  926.61  933.51 1009.45 1009.45 1037.74 1037.74
 1074.07 1105.06 1105.06 1171.64 1171.64 1245.18 1245.18 1246.34 1254.03
 1293.33 1293.33 1345.29 1471.92 1472.64 1485.31


--------------------------------------------------------------------------------
  K point      8 =   0.062500  0.062500  0.937500  Weight =    0.004
--------------------------------------------------------------------------------

  Frequencies (cm-1) [NB: Negative implies an imaginary mode]:

  122.12  122.12  188.98 1017.29 1017.29 1017.29 1027.46 1027.46 1027.46
 1146.60 1146.60 1146.60 1180.33 1180.33 1180.33 1214.19 1214.19 1214.19
 1280.72 1280.72 1280.72 1483.88 1483.88 1488.42


--------------------------------------------------------------------------------
  K point      9 =   0.062500  0.187500  0.062500  Weight =    0.004
--------------------------------------------------------------------------------

  Frequencies (cm-1) [NB: Negative implies an imaginary mode]:

  239.14  253.44  339.80  926.61  933.51 1009.45 1009.45 1037.74 1037.74
 1074.07 1105.06 1105.06 1171.64 1171.64 1245.18 1245.18 1246.34 1254.03
 1293.33 1293.33 1345.29 1471.92 1472.64 1485.31


--------------------------------------------------------------------------------
  K point     10 =   0.062500  0.187500  0.187500  Weight =    0.004
--------------------------------------------------------------------------------

  Frequencies (cm-1) [NB: Negative implies an imaginary mode]:

  287.86  333.59  453.25  925.07  925.07  945.69  945.69  977.69 1049.53
 1052.72 1052.72 1082.11 1196.46 1228.80 1241.30 1241.30 1276.91 1276.91
 1317.57 1340.49 1340.49 1457.89 1462.23 1483.73


--------------------------------------------------------------------------------
  K point     11 =   0.062500  0.187500  0.312500  Weight =    0.004
--------------------------------------------------------------------------------

  Frequencies (cm-1) [NB: Negative implies an imaginary mode]:

  400.62  454.15  588.12  809.11  834.23  926.50  950.78  960.96  962.73
 1032.69 1032.81 1066.56 1197.29 1230.93 1252.85 1304.62 1306.06 1327.34
 1330.70 1334.65 1387.56 1434.75 1442.07 1474.28


--------------------------------------------------------------------------------
  K point     12 =   0.062500  0.187500  0.437500  Weight =    0.004
--------------------------------------------------------------------------------

  Frequencies (cm-1) [NB: Negative implies an imaginary mode]:

  537.59  584.16  677.18  712.61  722.73  848.73  928.31  934.34  983.71
 1007.55 1030.69 1046.56 1203.96 1217.37 1284.29 1308.52 1330.75 1339.07
 1359.97 1373.89 1402.57 1412.38 1426.41 1455.37


--------------------------------------------------------------------------------
  K point     13 =   0.062500  0.187500  0.562500  Weight =    0.004
--------------------------------------------------------------------------------

  Frequencies (cm-1) [NB: Negative implies an imaginary mode]:

  537.59  584.16  677.18  712.61  722.73  848.73  928.31  934.34  983.71
 1007.55 1030.69 1046.56 1203.96 1217.37 1284.29 1308.52 1330.75 1339.07
 1359.97 1373.89 1402.57 1412.38 1426.41 1455.37


--------------------------------------------------------------------------------
  K point     14 =   0.062500  0.187500  0.687500  Weight =    0.004
--------------------------------------------------------------------------------

  Frequencies (cm-1) [NB: Negative implies an imaginary mode]:

  400.62  454.15  588.12  809.11  834.23  926.50  950.78  960.96  962.73
 1032.69 1032.81 1066.56 1197.29 1230.93 1252.85 1304.62 1306.06 1327.34
 1330.70 1334.65 1387.56 1434.75 1442.07 1474.28


--------------------------------------------------------------------------------
  K point     15 =   0.062500  0.187500  0.812500  Weight =    0.004
--------------------------------------------------------------------------------

  Frequencies (cm-1) [NB: Negative implies an imaginary mode]:

  287.86  333.59  453.25  925.07  925.07  945.69  945.69  977.69 1049.53
 1052.72 1052.72 1082.11 1196.46 1228.80 1241.30 1241.30 1276.91 1276.91
 1317.57 1340.49 1340.49 1457.89 1462.23 1483.73


--------------------------------------------------------------------------------
  K point     16 =   0.062500  0.187500  0.937500  Weight =    0.004
--------------------------------------------------------------------------------

  Frequencies (cm-1) [NB: Negative implies an imaginary mode]:

  239.14  253.44  339.80  926.61  933.51 1009.45 1009.45 1037.74 1037.74
 1074.07 1105.06 1105.06 1171.64 1171.64 1245.18 1245.18 1246.34 1254.03
 1293.33 1293.33 1345.29 1471.92 1472.64 1485.31


--------------------------------------------------------------------------------
  K point     17 =   0.062500  0.312500  0.062500  Weight =    0.004
--------------------------------------------------------------------------------

  Frequencies (cm-1) [NB: Negative implies an imaginary mode]:

  390.23  399.96  505.01  811.11  815.40  955.72 1007.01 1007.01 1045.90
 1045.90 1066.42 1066.42 1156.56 1156.56 1273.66 1273.66 1306.85 1306.85
 1313.15 1317.67 1396.39 1449.84 1450.05 1476.15


--------------------------------------------------------------------------------
  K point     18 =   0.062500  0.312500  0.187500  Weight =    0.004
--------------------------------------------------------------------------------

  Frequencies (cm-1) [NB: Negative implies an imaginary mode]:

  400.62  454.15  588.12  809.11  834.23  926.50  950.78  960.96  962.73
 1032.69 1032.81 1066.56 1197.29 1230.93 1252.85 1304.62 1306.06 1327.34
 1330.70 1334.65 1387.56 1434.75 1442.07 1474.28


--------------------------------------------------------------------------------
  K point     19 =   0.062500  0.312500  0.312500  Weight =    0.004
--------------------------------------------------------------------------------

  Frequencies (cm-1) [NB: Negative implies an imaginary mode]:

  462.11  547.02  691.87  810.02  810.02  869.90  869.90  895.28  972.04
  972.04 1001.30 1048.00 1233.45 1265.40 1292.55 1292.55 1341.74 1341.74
 1352.82 1369.58 1369.58 1410.57 1426.47 1464.07


--------------------------------------------------------------------------------
  K point     20 =   0.062500  0.312500  0.437500  Weight =    0.004
--------------------------------------------------------------------------------

  Frequencies (cm-1) [NB: Negative implies an imaginary mode]:

  564.26  655.26  685.31  765.61  795.84  822.21  850.68  891.11  915.78
  962.45  989.99 1016.39 1253.88 1274.27 1305.34 1340.99 1341.75 1354.45
 1359.10 1375.00 1379.51 1403.72 1410.28 1442.81


--------------------------------------------------------------------------------
  K point     21 =   0.062500  0.312500  0.562500  Weight =    0.004
--------------------------------------------------------------------------------

  Frequencies (cm-1) [NB: Negative implies an imaginary mode]:

  564.26  655.26  685.31  765.61  795.84  822.21  850.68  891.11  915.78
  962.45  989.99 1016.39 1253.88 1274.27 1305.34 1340.99 1341.75 1354.45
 1359.10 1375.00 1379.51 1403.72 1410.28 1442.81


--------------------------------------------------------------------------------
  K point     22 =   0.062500  0.312500  0.687500  Weight =    0.004
--------------------------------------------------------------------------------

  Frequencies (cm-1) [NB: Negative implies an imaginary mode]:

  462.11  547.02  691.87  810.02  810.02  869.90  869.90  895.28  972.04
  972.04 1001.30 1048.00 1233.45 1265.40 1292.55 1292.55 1341.74 1341.74
 1352.82 1369.58 1369.58 1410.57 1426.47 1464.07


--------------------------------------------------------------------------------
  K point     23 =   0.062500  0.312500  0.812500  Weight =    0.004
--------------------------------------------------------------------------------

  Frequencies (cm-1) [NB: Negative implies an imaginary mode]:

  400.62  454.15  588.12  809.11  834.23  926.50  950.78  960.96  962.73
 1032.69 1032.81 1066.56 1197.29 1230.93 1252.85 1304.62 1306.06 1327.34
 1330.70 1334.65 1387.56 1434.75 1442.07 1474.28


--------------------------------------------------------------------------------
  K point     24 =   0.062500  0.312500  0.937500  Weight =    0.004
--------------------------------------------------------------------------------

  Frequencies (cm-1) [NB: Negative implies an imaginary mode]:

  390.23  399.96  505.01  811.11  815.40  955.72 1007.01 1007.01 1045.90
 1045.90 1066.42 1066.42 1156.56 1156.56 1273.66 1273.66 1306.85 1306.85
 1313.15 1317.67 1396.39 1449.84 1450.05 1476.15


--------------------------------------------------------------------------------
  K point     25 =   0.062500  0.437500  0.062500  Weight =    0.004
--------------------------------------------------------------------------------

  Frequencies (cm-1) [NB: Negative implies an imaginary mode]:

  540.59  544.54  666.80  682.57  683.37  818.49 1012.81 1012.81 1034.52
 1034.52 1053.83 1053.83 1146.81 1146.81 1289.76 1289.76 1314.42 1314.42
 1370.24 1372.84 1415.95 1416.94 1433.86 1459.68


--------------------------------------------------------------------------------
  K point     26 =   0.062500  0.437500  0.187500  Weight =    0.004
--------------------------------------------------------------------------------

  Frequencies (cm-1) [NB: Negative implies an imaginary mode]:

  537.59  584.16  677.18  712.61  722.73  848.73  928.31  934.34  983.71
 1007.55 1030.69 1046.56 1203.96 1217.37 1284.29 1308.52 1330.75 1339.07
 1359.97 1373.89 1402.57 1412.38 1426.41 1455.37


--------------------------------------------------------------------------------
  K point     27 =   0.062500  0.437500  0.312500  Weight =    0.004
--------------------------------------------------------------------------------

  Frequencies (cm-1) [NB: Negative implies an imaginary mode]:

  564.26  655.26  685.31  765.61  795.84  822.21  850.68  891.11  915.78
  962.45  989.99 1016.39 1253.88 1274.27 1305.34 1340.99 1341.75 1354.45
 1359.10 1375.00 1379.51 1403.72 1410.28 1442.81


--------------------------------------------------------------------------------
  K point     28 =   0.062500  0.437500  0.437500  Weight =    0.004
--------------------------------------------------------------------------------

  Frequencies (cm-1) [NB: Negative implies an imaginary mode]:

  627.76  718.10  718.10  742.08  775.43  832.22  832.22  869.07  901.48
  935.10  935.10  977.27 1287.72 1316.16 1316.16 1343.87 1350.34 1371.70
 1371.70 1372.10 1386.19 1386.19 1390.40 1419.47


--------------------------------------------------------------------------------
  K point     29 =   0.062500  0.437500  0.562500  Weight =    0.004
--------------------------------------------------------------------------------

  Frequencies (cm-1) [NB: Negative implies an imaginary mode]:

  627.76  718.10  718.10  742.08  775.43  832.22  832.22  869.07  901.48
  935.10  935.10  977.27 1287.72 1316.16 1316.16 1343.87 1350.34 1371.70
 1371.70 1372.10 1386.19 1386.19 1390.40 1419.47


--------------------------------------------------------------------------------
  K point     30 =   0.062500  0.437500  0.687500  Weight =    0.004
--------------------------------------------------------------------------------

  Frequencies (cm-1) [NB: Negative implies an imaginary mode]:

  564.26  655.26  685.31  765.61  795.84  822.21  850.68  891.11  915.78
  962.45  989.99 1016.39 1253.88 1274.27 1305.34 1340.99 1341.75 1354.45
 1359.10 1375.00 1379.51 1403.72 1410.28 1442.81


--------------------------------------------------------------------------------
  K point     31 =   0.062500  0.437500  0.812500  Weight =    0.004
--------------------------------------------------------------------------------

  Frequencies (cm-1) [NB: Negative implies an imaginary mode]:

  537.59  584.16  677.18  712.61  722.73  848.73  928.31  934.34  983.71
 1007.55 1030.69 1046.56 1203.96 1217.37 1284.29 1308.52 1330.75 1339.07
 1359.97 1373.89 1402.57 1412.38 1426.41 1455.37


--------------------------------------------------------------------------------
  K point     32 =   0.062500  0.437500  0.937500  Weight =    0.004
--------------------------------------------------------------------------------

  Frequencies (cm-1) [NB: Negative implies an imaginary mode]:

  540.59  544.54  666.80  682.57  683.37  818.49 1012.81 1012.81 1034.52
 1034.52 1053.83 1053.83 1146.81 1146.81 1289.76 1289.76 1314.42 1314.42
 1370.24 1372.84 1415.95 1416.94 1433.86 1459.68


--------------------------------------------------------------------------------
  K point     33 =   0.062500  0.562500  0.062500  Weight =    0.004
--------------------------------------------------------------------------------

  Frequencies (cm-1) [NB: Negative implies an imaginary mode]:

  540.59  544.54  666.80  682.57  683.37  818.49 1012.81 1012.81 1034.52
 1034.52 1053.83 1053.83 1146.81 1146.81 1289.76 1289.76 1314.42 1314.42
 1370.24 1372.84 1415.95 1416.94 1433.86 1459.68


--------------------------------------------------------------------------------
  K point     34 =   0.062500  0.562500  0.187500  Weight =    0.004
--------------------------------------------------------------------------------

  Frequencies (cm-1) [NB: Negative implies an imaginary mode]:

  537.59  584.16  677.18  712.61  722.73  848.73  928.31  934.34  983.71
 1007.55 1030.69 1046.56 1203.96 1217.37 1284.29 1308.52 1330.75 1339.07
 1359.97 1373.89 1402.57 1412.38 1426.41 1455.37


--------------------------------------------------------------------------------
  K point     35 =   0.062500  0.562500  0.312500  Weight =    0.004
--------------------------------------------------------------------------------

  Frequencies (cm-1) [NB: Negative implies an imaginary mode]:

  564.26  655.26  685.31  765.61  795.84  822.21  850.68  891.11  915.78
  962.45  989.99 1016.39 1253.88 1274.27 1305.34 1340.99 1341.75 1354.45
 1359.10 1375.00 1379.51 1403.72 1410.28 1442.81


--------------------------------------------------------------------------------
  K point     36 =   0.062500  0.562500  0.437500  Weight =    0.004
--------------------------------------------------------------------------------

  Frequencies (cm-1) [NB: Negative implies an imaginary mode]:

  627.76  718.10  718.10  742.08  775.43  832.22  832.22  869.07  901.48
  935.10  935.10  977.27 1287.72 1316.16 1316.16 1343.87 1350.34 1371.70
 1371.70 1372.10 1386.19 1386.19 1390.40 1419.47


--------------------------------------------------------------------------------
  K point     37 =   0.062500  0.562500  0.562500  Weight =    0.004
--------------------------------------------------------------------------------

  Frequencies (cm-1) [NB: Negative implies an imaginary mode]:

  627.76  718.10  718.10  742.08  775.43  832.22  832.22  869.07  901.48
  935.10  935.10  977.27 1287.72 1316.16 1316.16 1343.87 1350.34 1371.70
 1371.70 1372.10 1386.19 1386.19 1390.40 1419.47


--------------------------------------------------------------------------------
  K point     38 =   0.062500  0.562500  0.687500  Weight =    0.004
--------------------------------------------------------------------------------

  Frequencies (cm-1) [NB: Negative implies an imaginary mode]:

  564.26  655.26  685.31  765.61  795.84  822.21  850.68  891.11  915.78
  962.45  989.99 1016.39 1253.88 1274.27 1305.34 1340.99 1341.75 1354.45
 1359.10 1375.00 1379.51 1403.72 1410.28 1442.81


--------------------------------------------------------------------------------
  K point     39 =   0.062500  0.562500  0.812500  Weight =    0.004
--------------------------------------------------------------------------------

  Frequencies (cm-1) [NB: Negative implies an imaginary mode]:

  537.59  584.16  677.18  712.61  722.73  848.73  928.31  934.34  983.71
 1007.55 1030.69 1046.56 1203.96 1217.37 1284.29 1308.52 1330.75 1339.07
 1359.97 1373.89 1402.57 1412.38 1426.41 1455.37


--------------------------------------------------------------------------------
  K point     40 =   0.062500  0.562500  0.937500  Weight =    0.004
--------------------------------------------------------------------------------

  Frequencies (cm-1) [NB: Negative implies an imaginary mode]:

  540.59  544.54  666.80  682.57  683.37  818.49 1012.81 1012.81 1034.52
 1034.52 1053.83 1053.83 1146.81 1146.81 1289.76 1289.76 1314.42 1314.42
 1370.24 1372.84 1415.95 1416.94 1433.86 1459.68


--------------------------------------------------------------------------------
  K point     41 =   0.062500  0.687500  0.062500  Weight =    0.004
--------------------------------------------------------------------------------

  Frequencies (cm-1) [NB: Negative implies an imaginary mode]:

  390.23  399.96  505.01  811.11  815.40  955.72 1007.01 1007.01 1045.90
 1045.90 1066.42 1066.42 1156.56 1156.56 1273.66 1273.66 1306.85 1306.85
 1313.15 1317.67 1396.39 1449.84 1450.05 1476.15


--------------------------------------------------------------------------------
  K point     42 =   0.062500  0.687500  0.187500  Weight =    0.004
--------------------------------------------------------------------------------

  Frequencies (cm-1) [NB: Negative implies an imaginary mode]:

  400.62  454.15  588.12  809.11  834.23  926.50  950.78  960.96  962.73
 1032.69 1032.81 1066.56 1197.29 1230.93 1252.85 1304.62 1306.06 1327.34
 1330.70 1334.65 1387.56 1434.75 1442.07 1474.28


--------------------------------------------------------------------------------
  K point     43 =   0.062500  0.687500  0.312500  Weight =    0.004
--------------------------------------------------------------------------------

  Frequencies (cm-1) [NB: Negative implies an imaginary mode]:

  462.11  547.02  691.87  810.02  810.02  869.90  869.90  895.28  972.04
  972.04 1001.30 1048.00 1233.45 1265.40 1292.55 1292.55 1341.74 1341.74
 1352.82 1369.58 1369.58 1410.57 1426.47 1464.07


--------------------------------------------------------------------------------
  K point     44 =   0.062500  0.687500  0.437500  Weight =    0.004
--------------------------------------------------------------------------------

  Frequencies (cm-1) [NB: Negative implies an imaginary mode]:

  564.26  655.26  685.31  765.61  795.84  822.21  850.68  891.11  915.78
  962.45  989.99 1016.39 1253.88 1274.27 1305.34 1340.99 1341.75 1354.45
 1359.10 1375.00 1379.51 1403.72 1410.28 1442.81


--------------------------------------------------------------------------------
  K point     45 =   0.062500  0.687500  0.562500  Weight =    0.004
--------------------------------------------------------------------------------

  Frequencies (cm-1) [NB: Negative implies an imaginary mode]:

  564.26  655.26  685.31  765.61  795.84  822.21  850.68  891.11  915.78
  962.45  989.99 1016.39 1253.88 1274.27 1305.34 1340.99 1341.75 1354.45
 1359.10 1375.00 1379.51 1403.72 1410.28 1442.81


--------------------------------------------------------------------------------
  K point     46 =   0.062500  0.687500  0.687500  Weight =    0.004
--------------------------------------------------------------------------------

  Frequencies (cm-1) [NB: Negative implies an imaginary mode]:

  462.11  547.02  691.87  810.02  810.02  869.90  869.90  895.28  972.04
  972.04 1001.30 1048.00 1233.45 1265.40 1292.55 1292.55 1341.74 1341.74
 1352.82 1369.58 1369.58 1410.57 1426.47 1464.07


--------------------------------------------------------------------------------
  K point     47 =   0.062500  0.687500  0.812500  Weight =    0.004
--------------------------------------------------------------------------------

  Frequencies (cm-1) [NB: Negative implies an imaginary mode]:

  400.62  454.15  588.12  809.11  834.23  926.50  950.78  960.96  962.73
 1032.69 1032.81 1066.56 1197.29 1230.93 1252.85 1304.62 1306.06 1327.34
 1330.70 1334.65 1387.56 1434.75 1442.07 1474.28


--------------------------------------------------------------------------------
  K point     48 =   0.062500  0.687500  0.937500  Weight =    0.004
--------------------------------------------------------------------------------

  Frequencies (cm-1) [NB: Negative implies an imaginary mode]:

  390.23  399.96  505.01  811.11  815.40  955.72 1007.01 1007.01 1045.90
 1045.90 1066.42 1066.42 1156.56 1156.56 1273.66 1273.66 1306.85 1306.85
 1313.15 1317.67 1396.39 1449.84 1450.05 1476.15


--------------------------------------------------------------------------------
  K point     49 =   0.062500  0.812500  0.062500  Weight =    0.004
--------------------------------------------------------------------------------

  Frequencies (cm-1) [NB: Negative implies an imaginary mode]:

  239.14  253.44  339.80  926.61  933.51 1009.45 1009.45 1037.74 1037.74
 1074.07 1105.06 1105.06 1171.64 1171.64 1245.18 1245.18 1246.34 1254.03
 1293.33 1293.33 1345.29 1471.92 1472.64 1485.31


--------------------------------------------------------------------------------
  K point     50 =   0.062500  0.812500  0.187500  Weight =    0.004
--------------------------------------------------------------------------------

  Frequencies (cm-1) [NB: Negative implies an imaginary mode]:

  287.86  333.59  453.25  925.07  925.07  945.69  945.69  977.69 1049.53
 1052.72 1052.72 1082.11 1196.46 1228.80 1241.30 1241.30 1276.91 1276.91
 1317.57 1340.49 1340.49 1457.89 1462.23 1483.73


--------------------------------------------------------------------------------
  K point     51 =   0.062500  0.812500  0.312500  Weight =    0.004
--------------------------------------------------------------------------------

  Frequencies (cm-1) [NB: Negative implies an imaginary mode]:

  400.62  454.15  588.12  809.11  834.23  926.50  950.78  960.96  962.73
 1032.69 1032.81 1066.56 1197.29 1230.93 1252.85 1304.62 1306.06 1327.34
 1330.70 1334.65 1387.56 1434.75 1442.07 1474.28


--------------------------------------------------------------------------------
  K point     52 =   0.062500  0.812500  0.437500  Weight =    0.004
--------------------------------------------------------------------------------

  Frequencies (cm-1) [NB: Negative implies an imaginary mode]:

  537.59  584.16  677.18  712.61  722.73  848.73  928.31  934.34  983.71
 1007.55 1030.69 1046.56 1203.96 1217.37 1284.29 1308.52 1330.75 1339.07
 1359.97 1373.89 1402.57 1412.38 1426.41 1455.37


--------------------------------------------------------------------------------
  K point     53 =   0.062500  0.812500  0.562500  Weight =    0.004
--------------------------------------------------------------------------------

  Frequencies (cm-1) [NB: Negative implies an imaginary mode]:

  537.59  584.16  677.18  712.61  722.73  848.73  928.31  934.34  983.71
 1007.55 1030.69 1046.56 1203.96 1217.37 1284.29 1308.52 1330.75 1339.07
 1359.97 1373.89 1402.57 1412.38 1426.41 1455.37


--------------------------------------------------------------------------------
  K point     54 =   0.062500  0.812500  0.687500  Weight =    0.004
--------------------------------------------------------------------------------

  Frequencies (cm-1) [NB: Negative implies an imaginary mode]:

  400.62  454.15  588.12  809.11  834.23  926.50  950.78  960.96  962.73
 1032.69 1032.81 1066.56 1197.29 1230.93 1252.85 1304.62 1306.06 1327.34
 1330.70 1334.65 1387.56 1434.75 1442.07 1474.28


--------------------------------------------------------------------------------
  K point     55 =   0.062500  0.812500  0.812500  Weight =    0.004
--------------------------------------------------------------------------------

  Frequencies (cm-1) [NB: Negative implies an imaginary mode]:

  287.86  333.59  453.25  925.07  925.07  945.69  945.69  977.69 1049.53
 1052.72 1052.72 1082.11 1196.46 1228.80 1241.30 1241.30 1276.91 1276.91
 1317.57 1340.49 1340.49 1457.89 1462.23 1483.73


--------------------------------------------------------------------------------
  K point     56 =   0.062500  0.812500  0.937500  Weight =    0.004
--------------------------------------------------------------------------------

  Frequencies (cm-1) [NB: Negative implies an imaginary mode]:

  239.14  253.44  339.80  926.61  933.51 1009.45 1009.45 1037.74 1037.74
 1074.07 1105.06 1105.06 1171.64 1171.64 1245.18 1245.18 1246.34 1254.03
 1293.33 1293.33 1345.29 1471.92 1472.64 1485.31


--------------------------------------------------------------------------------
  K point     57 =   0.062500  0.937500  0.062500  Weight =    0.004
--------------------------------------------------------------------------------

  Frequencies (cm-1) [NB: Negative implies an imaginary mode]:

  122.12  122.12  188.98 1017.29 1017.29 1017.29 1027.46 1027.46 1027.46
 1146.60 1146.60 1146.60 1180.33 1180.33 1180.33 1214.19 1214.19 1214.19
 1280.72 1280.72 1280.72 1483.88 1483.88 1488.42


--------------------------------------------------------------------------------
  K point     58 =   0.062500  0.937500  0.187500  Weight =    0.004
--------------------------------------------------------------------------------

  Frequencies (cm-1) [NB: Negative implies an imaginary mode]:

  239.14  253.44  339.80  926.61  933.51 1009.45 1009.45 1037.74 1037.74
 1074.07 1105.06 1105.06 1171.64 1171.64 1245.18 1245.18 1246.34 1254.03
 1293.33 1293.33 1345.29 1471.92 1472.64 1485.31


--------------------------------------------------------------------------------
  K point     59 =   0.062500  0.937500  0.312500  Weight =    0.004
--------------------------------------------------------------------------------

  Frequencies (cm-1) [NB: Negative implies an imaginary mode]:

  390.23  399.96  505.01  811.11  815.40  955.72 1007.01 1007.01 1045.90
 1045.90 1066.42 1066.42 1156.56 1156.56 1273.66 1273.66 1306.85 1306.85
 1313.15 1317.67 1396.39 1449.84 1450.05 1476.15


--------------------------------------------------------------------------------
  K point     60 =   0.062500  0.937500  0.437500  Weight =    0.004
--------------------------------------------------------------------------------

  Frequencies (cm-1) [NB: Negative implies an imaginary mode]:

  540.59  544.54  666.80  682.57  683.37  818.49 1012.81 1012.81 1034.52
 1034.52 1053.83 1053.83 1146.81 1146.81 1289.76 1289.76 1314.42 1314.42
 1370.24 1372.84 1415.95 1416.94 1433.86 1459.68


--------------------------------------------------------------------------------
  K point     61 =   0.062500  0.937500  0.562500  Weight =    0.004
--------------------------------------------------------------------------------

  Frequencies (cm-1) [NB: Negative implies an imaginary mode]:

  540.59  544.54  666.80  682.57  683.37  818.49 1012.81 1012.81 1034.52
 1034.52 1053.83 1053.83 1146.81 1146.81 1289.76 1289.76 1314.42 1314.42
 1370.24 1372.84 1415.95 1416.94 1433.86 1459.68


--------------------------------------------------------------------------------
  K point     62 =   0.062500  0.937500  0.687500  Weight =    0.004
--------------------------------------------------------------------------------

  Frequencies (cm-1) [NB: Negative implies an imaginary mode]:

  390.23  399.96  505.01  811.11  815.40  955.72 1007.01 1007.01 1045.90
 1045.90 1066.42 1066.42 1156.56 1156.56 1273.66 1273.66 1306.85 1306.85
 1313.15 1317.67 1396.39 1449.84 1450.05 1476.15


--------------------------------------------------------------------------------
  K point     63 =   0.062500  0.937500  0.812500  Weight =    0.004
--------------------------------------------------------------------------------

  Frequencies (cm-1) [NB: Negative implies an imaginary mode]:

  239.14  253.44  339.80  926.61  933.51 1009.45 1009.45 1037.74 1037.74
 1074.07 1105.06 1105.06 1171.64 1171.64 1245.18 1245.18 1246.34 1254.03
 1293.33 1293.33 1345.29 1471.92 1472.64 1485.31


--------------------------------------------------------------------------------
  K point     64 =   0.062500  0.937500  0.937500  Weight =    0.004
--------------------------------------------------------------------------------

  Frequencies (cm-1) [NB: Negative implies an imaginary mode]:

  122.12  122.12  188.98 1017.29 1017.29 1017.29 1027.46 1027.46 1027.46
 1146.60 1146.60 1146.60 1180.33 1180.33 1180.33 1214.19 1214.19 1214.19
 1280.72 1280.72 1280.72 1483.88 1483.88 1488.42


--------------------------------------------------------------------------------
  K point     65 =   0.187500  0.062500  0.062500  Weight =    0.004
--------------------------------------------------------------------------------

  Frequencies (cm-1) [NB: Negative implies an imaginary mode]:

  239.14  253.44  339.80  926.61  933.51 1009.45 1009.45 1037.74 1037.74
 1074.07 1105.06 1105.06 1171.64 1171.64 1245.18 1245.18 1246.34 1254.03
 1293.33 1293.33 1345.29 1471.92 1472.64 1485.31


--------------------------------------------------------------------------------
  K point     66 =   0.187500  0.062500  0.187500  Weight =    0.004
--------------------------------------------------------------------------------

  Frequencies (cm-1) [NB: Negative implies an imaginary mode]:

  287.86  333.59  453.25  925.07  925.07  945.69  945.69  977.69 1049.53
 1052.72 1052.72 1082.11 1196.46 1228.80 1241.30 1241.30 1276.91 1276.91
 1317.57 1340.49 1340.49 1457.89 1462.23 1483.73


--------------------------------------------------------------------------------
  K point     67 =   0.187500  0.062500  0.312500  Weight =    0.004
--------------------------------------------------------------------------------

  Frequencies (cm-1) [NB: Negative implies an imaginary mode]:

  400.62  454.15  588.12  809.11  834.23  926.50  950.78  960.96  962.73
 1032.69 1032.81 1066.56 1197.29 1230.93 1252.85 1304.62 1306.06 1327.34
 1330.70 1334.65 1387.56 1434.75 1442.07 1474.28


--------------------------------------------------------------------------------
  K point     68 =   0.187500  0.062500  0.437500  Weight =    0.004
--------------------------------------------------------------------------------

  Frequencies (cm-1) [NB: Negative implies an imaginary mode]:

  537.59  584.16  677.18  712.61  722.73  848.73  928.31  934.34  983.71
 1007.55 1030.69 1046.56 1203.96 1217.37 1284.29 1308.52 1330.75 1339.07
 1359.97 1373.89 1402.57 1412.38 1426.41 1455.37


--------------------------------------------------------------------------------
  K point     69 =   0.187500  0.062500  0.562500  Weight =    0.004
--------------------------------------------------------------------------------

  Frequencies (cm-1) [NB: Negative implies an imaginary mode]:

  537.59  584.16  677.18  712.61  722.73  848.73  928.31  934.34  983.71
 1007.55 1030.69 1046.56 1203.96 1217.37 1284.29 1308.52 1330.75 1339.07
 1359.97 1373.89 1402.57 1412.38 1426.41 1455.37


--------------------------------------------------------------------------------
  K point     70 =   0.187500  0.062500  0.687500  Weight =    0.004
--------------------------------------------------------------------------------

  Frequencies (cm-1) [NB: Negative implies an imaginary mode]:

  400.62  454.15  588.12  809.11  834.23  926.50  950.78  960.96  962.73
 1032.69 1032.81 1066.56 1197.29 1230.93 1252.85 1304.62 1306.06 1327.34
 1330.70 1334.65 1387.56 1434.75 1442.07 1474.28


--------------------------------------------------------------------------------
  K point     71 =   0.187500  0.062500  0.812500  Weight =    0.004
--------------------------------------------------------------------------------

  Frequencies (cm-1) [NB: Negative implies an imaginary mode]:

  287.86  333.59  453.25  925.07  925.07  945.69  945.69  977.69 1049.53
 1052.72 1052.72 1082.11 1196.46 1228.80 1241.30 1241.30 1276.91 1276.91
 1317.57 1340.49 1340.49 1457.89 1462.23 1483.73


--------------------------------------------------------------------------------
  K point     72 =   0.187500  0.062500  0.937500  Weight =    0.004
--------------------------------------------------------------------------------

  Frequencies (cm-1) [NB: Negative implies an imaginary mode]:

  239.14  253.44  339.80  926.61  933.51 1009.45 1009.45 1037.74 1037.74
 1074.07 1105.06 1105.06 1171.64 1171.64 1245.18 1245.18 1246.34 1254.03
 1293.33 1293.33 1345.29 1471.92 1472.64 1485.31


--------------------------------------------------------------------------------
  K point     73 =   0.187500  0.187500  0.062500  Weight =    0.004
--------------------------------------------------------------------------------

  Frequencies (cm-1) [NB: Negative implies an imaginary mode]:

  287.86  333.59  453.25  925.07  925.07  945.69  945.69  977.69 1049.53
 1052.72 1052.72 1082.11 1196.46 1228.80 1241.30 1241.30 1276.91 1276.91
 1317.57 1340.49 1340.49 1457.89 1462.23 1483.73


--------------------------------------------------------------------------------
  K point     74 =   0.187500  0.187500  0.187500  Weight =    0.004
--------------------------------------------------------------------------------

  Frequencies (cm-1) [NB: Negative implies an imaginary mode]:

  356.55  356.55  547.40  907.77  907.77  907.77  952.95  952.95  952.95
 1047.04 1047.04 1047.04 1244.87 1244.87 1244.87 1283.63 1283.63 1283.63
 1341.90 1341.90 1341.90 1447.35 1447.35 1483.35


--------------------------------------------------------------------------------
  K point     75 =   0.187500  0.187500  0.312500  Weight =    0.004
--------------------------------------------------------------------------------

  Frequencies (cm-1) [NB: Negative implies an imaginary mode]:

  441.86  461.48  664.66  808.88  831.30  894.34  894.34  947.63  947.63
  978.31 1046.02 1046.02 1243.33 1243.33 1299.03 1299.03 1301.65 1332.25
 1342.08 1342.08 1381.49 1425.39 1426.24 1474.59


--------------------------------------------------------------------------------
  K point     76 =   0.187500  0.187500  0.437500  Weight =    0.004
--------------------------------------------------------------------------------

  Frequencies (cm-1) [NB: Negative implies an imaginary mode]:

  564.01  578.87  696.96  698.48  781.43  887.83  887.83  887.90  938.96
  938.96 1048.51 1048.51 1240.47 1240.47 1312.88 1312.88 1339.73 1339.73
 1352.74 1368.58 1394.62 1398.96 1422.62 1454.57


--------------------------------------------------------------------------------
  K point     77 =   0.187500  0.187500  0.562500  Weight =    0.004
--------------------------------------------------------------------------------

  Frequencies (cm-1) [NB: Negative implies an imaginary mode]:

  564.01  578.87  696.96  698.48  781.43  887.83  887.83  887.90  938.96
  938.96 1048.51 1048.51 1240.47 1240.47 1312.88 1312.88 1339.73 1339.73
 1352.74 1368.58 1394.62 1398.96 1422.62 1454.57


--------------------------------------------------------------------------------
  K point     78 =   0.187500  0.187500  0.687500  Weight =    0.004
--------------------------------------------------------------------------------

  Frequencies (cm-1) [NB: Negative implies an imaginary mode]:

  441.86  461.48  664.66  808.88  831.30  894.34  894.34  947.63  947.63
  978.31 1046.02 1046.02 1243.33 1243.33 1299.03 1299.03 1301.65 1332.25
 1342.08 1342.08 1381.49 1425.39 1426.24 1474.59


--------------------------------------------------------------------------------
  K point     79 =   0.187500  0.187500  0.812500  Weight =    0.004
--------------------------------------------------------------------------------

  Frequencies (cm-1) [NB: Negative implies an imaginary mode]:

  356.55  356.55  547.40  907.77  907.77  907.77  952.95  952.95  952.95
 1047.04 1047.04 1047.04 1244.87 1244.87 1244.87 1283.63 1283.63 1283.63
 1341.90 1341.90 1341.90 1447.35 1447.35 1483.35


--------------------------------------------------------------------------------
  K point     80 =   0.187500  0.187500  0.937500  Weight =    0.004
--------------------------------------------------------------------------------

  Frequencies (cm-1) [NB: Negative implies an imaginary mode]:

  287.86  333.59  453.25  925.07  925.07  945.69  945.69  977.69 1049.53
 1052.72 1052.72 1082.11 1196.46 1228.80 1241.30 1241.30 1276.91 1276.91
 1317.57 1340.49 1340.49 1457.89 1462.23 1483.73


--------------------------------------------------------------------------------
  K point     81 =   0.187500  0.312500  0.062500  Weight =    0.004
--------------------------------------------------------------------------------

  Frequencies (cm-1) [NB: Negative implies an imaginary mode]:

  400.62  454.15  588.12  809.11  834.23  926.50  950.78  960.96  962.73
 1032.69 1032.81 1066.56 1197.29 1230.93 1252.85 1304.62 1306.06 1327.34
 1330.70 1334.65 1387.56 1434.75 1442.07 1474.28


--------------------------------------------------------------------------------
  K point     82 =   0.187500  0.312500  0.187500  Weight =    0.004
--------------------------------------------------------------------------------

  Frequencies (cm-1) [NB: Negative implies an imaginary mode]:

  441.86  461.48  664.66  808.88  831.30  894.34  894.34  947.63  947.63
  978.31 1046.02 1046.02 1243.33 1243.33 1299.03 1299.03 1301.65 1332.25
 1342.08 1342.08 1381.49 1425.39 1426.24 1474.59


--------------------------------------------------------------------------------
  K point     83 =   0.187500  0.312500  0.312500  Weight =    0.004
--------------------------------------------------------------------------------

  Frequencies (cm-1) [NB: Negative implies an imaginary mode]:

  496.80  534.41  761.40  804.39  804.39  841.78  841.78  856.13  920.98
 1003.01 1003.01 1052.69 1257.32 1292.77 1292.77 1306.57 1340.11 1340.11
 1350.91 1369.52 1369.52 1401.99 1408.58 1466.52


--------------------------------------------------------------------------------
  K point     84 =   0.187500  0.312500  0.437500  Weight =    0.004
--------------------------------------------------------------------------------

  Frequencies (cm-1) [NB: Negative implies an imaginary mode]:

  586.10  631.39  695.53  735.27  807.55  825.09  856.14  863.12  890.87
  938.66 1027.28 1045.59 1268.82 1281.02 1326.58 1336.97 1343.97 1353.92
 1355.16 1362.29 1373.11 1385.56 1412.81 1446.28


--------------------------------------------------------------------------------
  K point     85 =   0.187500  0.312500  0.562500  Weight =    0.004
--------------------------------------------------------------------------------

  Frequencies (cm-1) [NB: Negative implies an imaginary mode]:

  586.10  631.39  695.53  735.27  807.55  825.09  856.14  863.12  890.87
  938.66 1027.28 1045.59 1268.82 1281.02 1326.58 1336.97 1343.97 1353.92
 1355.16 1362.29 1373.11 1385.56 1412.81 1446.28


--------------------------------------------------------------------------------
  K point     86 =   0.187500  0.312500  0.687500  Weight =    0.004
--------------------------------------------------------------------------------

  Frequencies (cm-1) [NB: Negative implies an imaginary mode]:

  496.80  534.41  761.40  804.39  804.39  841.78  841.78  856.13  920.98
 1003.01 1003.01 1052.69 1257.32 1292.77 1292.77 1306.57 1340.11 1340.11
 1350.91 1369.52 1369.52 1401.99 1408.58 1466.52


--------------------------------------------------------------------------------
  K point     87 =   0.187500  0.312500  0.812500  Weight =    0.004
--------------------------------------------------------------------------------

  Frequencies (cm-1) [NB: Negative implies an imaginary mode]:

  441.86  461.48  664.66  808.88  831.30  894.34  894.34  947.63  947.63
  978.31 1046.02 1046.02 1243.33 1243.33 1299.03 1299.03 1301.65 1332.25
 1342.08 1342.08 1381.49 1425.39 1426.24 1474.59


--------------------------------------------------------------------------------
  K point     88 =   0.187500  0.312500  0.937500  Weight =    0.004
--------------------------------------------------------------------------------

  Frequencies (cm-1) [NB: Negative implies an imaginary mode]:

  400.62  454.15  588.12  809.11  834.23  926.50  950.78  960.96  962.73
 1032.69 1032.81 1066.56 1197.29 1230.93 1252.85 1304.62 1306.06 1327.34
 1330.70 1334.65 1387.56 1434.75 1442.07 1474.28


--------------------------------------------------------------------------------
  K point     89 =   0.187500  0.437500  0.062500  Weight =    0.004
--------------------------------------------------------------------------------

  Frequencies (cm-1) [NB: Negative implies an imaginary mode]:

  537.59  584.16  677.18  712.61  722.73  848.73  928.31  934.34  983.71
 1007.55 1030.69 1046.56 1203.96 1217.37 1284.29 1308.52 1330.75 1339.07
 1359.97 1373.89 1402.57 1412.38 1426.41 1455.37


--------------------------------------------------------------------------------
  K point     90 =   0.187500  0.437500  0.187500  Weight =    0.004
--------------------------------------------------------------------------------

  Frequencies (cm-1) [NB: Negative implies an imaginary mode]:

  564.01  578.87  696.96  698.48  781.43  887.83  887.83  887.90  938.96
  938.96 1048.51 1048.51 1240.47 1240.47 1312.88 1312.88 1339.73 1339.73
 1352.74 1368.58 1394.62 1398.96 1422.62 1454.57


--------------------------------------------------------------------------------
  K point     91 =   0.187500  0.437500  0.312500  Weight =    0.004
--------------------------------------------------------------------------------

  Frequencies (cm-1) [NB: Negative implies an imaginary mode]:

  586.10  631.39  695.53  735.27  807.55  825.09  856.14  863.12  890.87
  938.66 1027.28 1045.59 1268.82 1281.02 1326.58 1336.97 1343.97 1353.92
 1355.16 1362.29 1373.11 1385.56 1412.81 1446.28


--------------------------------------------------------------------------------
  K point     92 =   0.187500  0.437500  0.437500  Weight =    0.004
--------------------------------------------------------------------------------

  Frequencies (cm-1) [NB: Negative implies an imaginary mode]:

  638.84  704.60  717.80  717.80  763.72  784.17  784.17  838.01  927.56
  986.31  986.31 1023.59 1293.46 1316.16 1316.16 1343.03 1346.32 1354.51
 1354.51 1369.90 1373.77 1395.74 1395.74 1426.90


--------------------------------------------------------------------------------
  K point     93 =   0.187500  0.437500  0.562500  Weight =    0.004
--------------------------------------------------------------------------------

  Frequencies (cm-1) [NB: Negative implies an imaginary mode]:

  638.84  704.60  717.80  717.80  763.72  784.17  784.17  838.01  927.56
  986.31  986.31 1023.59 1293.46 1316.16 1316.16 1343.03 1346.32 1354.51
 1354.51 1369.90 1373.77 1395.74 1395.74 1426.90


--------------------------------------------------------------------------------
  K point     94 =   0.187500  0.437500  0.687500  Weight =    0.004
--------------------------------------------------------------------------------

  Frequencies (cm-1) [NB: Negative implies an imaginary mode]:

  586.10  631.39  695.53  735.27  807.55  825.09  856.14  863.12  890.87
  938.66 1027.28 1045.59 1268.82 1281.02 1326.58 1336.97 1343.97 1353.92
 1355.16 1362.29 1373.11 1385.56 1412.81 1446.28


--------------------------------------------------------------------------------
  K point     95 =   0.187500  0.437500  0.812500  Weight =    0.004
--------------------------------------------------------------------------------

  Frequencies (cm-1) [NB: Negative implies an imaginary mode]:

  564.01  578.87  696.96  698.48  781.43  887.83  887.83  887.90  938.96
  938.96 1048.51 1048.51 1240.47 1240.47 1312.88 1312.88 1339.73 1339.73
 1352.74 1368.58 1394.62 1398.96 1422.62 1454.57


--------------------------------------------------------------------------------
  K point     96 =   0.187500  0.437500  0.937500  Weight =    0.004
--------------------------------------------------------------------------------

  Frequencies (cm-1) [NB: Negative implies an imaginary mode]:

  537.59  584.16  677.18  712.61  722.73  848.73  928.31  934.34  983.71
 1007.55 1030.69 1046.56 1203.96 1217.37 1284.29 1308.52 1330.75 1339.07
 1359.97 1373.89 1402.57 1412.38 1426.41 1455.37


--------------------------------------------------------------------------------
  K point     97 =   0.187500  0.562500  0.062500  Weight =    0.004
--------------------------------------------------------------------------------

  Frequencies (cm-1) [NB: Negative implies an imaginary mode]:

  537.59  584.16  677.18  712.61  722.73  848.73  928.31  934.34  983.71
 1007.55 1030.69 1046.56 1203.96 1217.37 1284.29 1308.52 1330.75 1339.07
 1359.97 1373.89 1402.57 1412.38 1426.41 1455.37


--------------------------------------------------------------------------------
  K point     98 =   0.187500  0.562500  0.187500  Weight =    0.004
--------------------------------------------------------------------------------

  Frequencies (cm-1) [NB: Negative implies an imaginary mode]:

  564.01  578.87  696.96  698.48  781.43  887.83  887.83  887.90  938.96
  938.96 1048.51 1048.51 1240.47 1240.47 1312.88 1312.88 1339.73 1339.73
 1352.74 1368.58 1394.62 1398.96 1422.62 1454.57


--------------------------------------------------------------------------------
  K point     99 =   0.187500  0.562500  0.312500  Weight =    0.004
--------------------------------------------------------------------------------

  Frequencies (cm-1) [NB: Negative implies an imaginary mode]:

  586.10  631.39  695.53  735.27  807.55  825.09  856.14  863.12  890.87
  938.66 1027.28 1045.59 1268.82 1281.02 1326.58 1336.97 1343.97 1353.92
 1355.16 1362.29 1373.11 1385.56 1412.81 1446.28


--------------------------------------------------------------------------------
  K point    100 =   0.187500  0.562500  0.437500  Weight =    0.004
--------------------------------------------------------------------------------

  Frequencies (cm-1) [NB: Negative implies an imaginary mode]:

  638.84  704.60  717.80  717.80  763.72  784.17  784.17  838.01  927.56
  986.31  986.31 1023.59 1293.46 1316.16 1316.16 1343.03 1346.32 1354.51
 1354.51 1369.90 1373.77 1395.74 1395.74 1426.90


--------------------------------------------------------------------------------
  K point    101 =   0.187500  0.562500  0.562500  Weight =    0.004
--------------------------------------------------------------------------------

  Frequencies (cm-1) [NB: Negative implies an imaginary mode]:

  638.84  704.60  717.80  717.80  763.72  784.17  784.17  838.01  927.56
  986.31  986.31 1023.59 1293.46 1316.16 1316.16 1343.03 1346.32 1354.51
 1354.51 1369.90 1373.77 1395.74 1395.74 1426.90


--------------------------------------------------------------------------------
  K point    102 =   0.187500  0.562500  0.687500  Weight =    0.004
--------------------------------------------------------------------------------

  Frequencies (cm-1) [NB: Negative implies an imaginary mode]:

  586.10  631.39  695.53  735.27  807.55  825.09  856.14  863.12  890.87
  938.66 1027.28 1045.59 1268.82 1281.02 1326.58 1336.97 1343.97 1353.92
 1355.16 1362.29 1373.11 1385.56 1412.81 1446.28


--------------------------------------------------------------------------------
  K point    103 =   0.187500  0.562500  0.812500  Weight =    0.004
--------------------------------------------------------------------------------

  Frequencies (cm-1) [NB: Negative implies an imaginary mode]:

  564.01  578.87  696.96  698.48  781.43  887.83  887.83  887.90  938.96
  938.96 1048.51 1048.51 1240.47 1240.47 1312.88 1312.88 1339.73 1339.73
 1352.74 1368.58 1394.62 1398.96 1422.62 1454.57


--------------------------------------------------------------------------------
  K point    104 =   0.187500  0.562500  0.937500  Weight =    0.004
--------------------------------------------------------------------------------

  Frequencies (cm-1) [NB: Negative implies an imaginary mode]:

  537.59  584.16  677.18  712.61  722.73  848.73  928.31  934.34  983.71
 1007.55 1030.69 1046.56 1203.96 1217.37 1284.29 1308.52 1330.75 1339.07
 1359.97 1373.89 1402.57 1412.38 1426.41 1455.37


--------------------------------------------------------------------------------
  K point    105 =   0.187500  0.687500  0.062500  Weight =    0.004
--------------------------------------------------------------------------------

  Frequencies (cm-1) [NB: Negative implies an imaginary mode]:

  400.62  454.15  588.12  809.11  834.23  926.50  950.78  960.96  962.73
 1032.69 1032.81 1066.56 1197.29 1230.93 1252.85 1304.62 1306.06 1327.34
 1330.70 1334.65 1387.56 1434.75 1442.07 1474.28


--------------------------------------------------------------------------------
[...]
--------------------------------------------------------------------------------
  Zero point energy            =        1.616655 eV
  Entropy                      =        0.000002 eV/K
                               =        0.145665 J/(mol.K)
  Helmholtz free-energy        =      -57.242870 eV
                               =    -5523.061473 kJmol-1
  Free energy (equipartition)  =      -58.416702 eV
  - T*S       (equipartition)  =        0.298028 eV
  Uvib        (equipartition)  =        0.144771 eV
  Mean kinetic energy          =        0.808368 eV
  Heat capacity - const volume =        0.000005 eV/K
                               =        0.473266 J/(mol.K)
--------------------------------------------------------------------------------
  Phonon properties (per mole of unit cells): Temperature =     80.000 K
--------------------------------------------------------------------------------
  Zero point energy            =        1.616655 eV
  Entropy                      =        0.000002 eV/K
                               =        0.224071 J/(mol.K)
  Helmholtz free-energy        =      -57.242889 eV
                               =    -5523.063304 kJmol-1
  Free energy (equipartition)  =      -58.375538 eV
  - T*S       (equipartition)  =        0.318511 eV
  Uvib        (equipartition)  =        0.165453 eV
  Mean kinetic energy          =        0.808399 eV
  Heat capacity - const volume =        0.000007 eV/K
                               =        0.718701 J/(mol.K)
--------------------------------------------------------------------------------
  Phonon properties (per mole of unit cells): Temperature =     90.000 K
--------------------------------------------------------------------------------
  Zero point energy            =        1.616655 eV
  Entropy                      =        0.000003 eV/K
                               =        0.326685 J/(mol.K)
  Helmholtz free-energy        =      -57.242918 eV
                               =    -5523.066035 kJmol-1
  Free energy (equipartition)  =      -58.336966 eV
  - T*S       (equipartition)  =        0.336401 eV
  Uvib        (equipartition)  =        0.186134 eV
  Mean kinetic energy          =        0.808444 eV
  Heat capacity - const volume =        0.000011 eV/K
                               =        1.044886 J/(mol.K)
--------------------------------------------------------------------------------
  Phonon properties (per mole of unit cells): Temperature =    100.000 K
--------------------------------------------------------------------------------
  Zero point energy            =        1.616655 eV
  Entropy                      =        0.000005 eV/K
                               =        0.457753 J/(mol.K)
  Helmholtz free-energy        =      -57.242958 eV
                               =    -5523.069932 kJmol-1
  Free energy (equipartition)  =      -58.300697 eV
  - T*S       (equipartition)  =        0.351989 eV
  Uvib        (equipartition)  =        0.206816 eV
  Mean kinetic energy          =        0.808509 eV
  Heat capacity - const volume =        0.000015 eV/K
                               =        1.468104 J/(mol.K)
--------------------------------------------------------------------------------
  Phonon properties (per mole of unit cells): Temperature =    110.000 K
--------------------------------------------------------------------------------
  Zero point energy            =        1.616655 eV
  Entropy                      =        0.000006 eV/K
                               =        0.621893 J/(mol.K)
  Helmholtz free-energy        =      -57.243014 eV
                               =    -5523.075301 kJmol-1
  Free energy (equipartition)  =      -58.266499 eV
  - T*S       (equipartition)  =        0.365505 eV
  Uvib        (equipartition)  =        0.227498 eV
  Mean kinetic energy          =        0.808598 eV
  Heat capacity - const volume =        0.000021 eV/K
                               =        2.005074 J/(mol.K)
--------------------------------------------------------------------------------
  Phonon properties (per mole of unit cells): Temperature =    120.000 K
--------------------------------------------------------------------------------
  Zero point energy            =        1.616655 eV
  Entropy                      =        0.000009 eV/K
                               =        0.823944 J/(mol.K)
  Helmholtz free-energy        =      -57.243088 eV
                               =    -5523.082496 kJmol-1
  Free energy (equipartition)  =      -58.234184 eV
  - T*S       (equipartition)  =        0.377138 eV
  Uvib        (equipartition)  =        0.248179 eV
  Mean kinetic energy          =        0.808719 eV
  Heat capacity - const volume =        0.000028 eV/K
                               =        2.671648 J/(mol.K)
--------------------------------------------------------------------------------
  Phonon properties (per mole of unit cells): Temperature =    130.000 K
--------------------------------------------------------------------------------
  Zero point energy            =        1.616655 eV
  Entropy                      =        0.000011 eV/K
                               =        1.068778 J/(mol.K)
  Helmholtz free-energy        =      -57.243186 eV
                               =    -5523.091922 kJmol-1
  Free energy (equipartition)  =      -58.203595 eV
  - T*S       (equipartition)  =        0.387046 eV
  Uvib        (equipartition)  =        0.268861 eV
  Mean kinetic energy          =        0.808878 eV
  Heat capacity - const volume =        0.000036 eV/K
                               =        3.481651 J/(mol.K)
--------------------------------------------------------------------------------
  Phonon properties (per mole of unit cells): Temperature =    140.000 K
--------------------------------------------------------------------------------
  Zero point energy            =        1.616655 eV
  Entropy                      =        0.000014 eV/K
                               =        1.361110 J/(mol.K)
  Helmholtz free-energy        =      -57.243311 eV
                               =    -5523.104030 kJmol-1
  Free energy (equipartition)  =      -58.174598 eV
  - T*S       (equipartition)  =        0.395361 eV
  Uvib        (equipartition)  =        0.289542 eV
  Mean kinetic energy          =        0.809083 eV
  Heat capacity - const volume =        0.000046 eV/K
                               =        4.446102 J/(mol.K)
--------------------------------------------------------------------------------
  Phonon properties (per mole of unit cells): Temperature =    150.000 K
--------------------------------------------------------------------------------
  Zero point energy            =        1.616655 eV
  Entropy                      =        0.000018 eV/K
                               =        1.705331 J/(mol.K)
  Helmholtz free-energy        =      -57.243470 eV
                               =    -5523.119317 kJmol-1
  Free energy (equipartition)  =      -58.147079 eV
  - T*S       (equipartition)  =        0.402198 eV
  Uvib        (equipartition)  =        0.310224 eV
  Mean kinetic energy          =        0.809341 eV
  Heat capacity - const volume =        0.000058 eV/K
                               =        5.572836 J/(mol.K)
--------------------------------------------------------------------------------
  Phonon properties (per mole of unit cells): Temperature =    160.000 K
--------------------------------------------------------------------------------
  Zero point energy            =        1.616655 eV
  Entropy                      =        0.000022 eV/K
                               =        2.105384 J/(mol.K)
  Helmholtz free-energy        =      -57.243667 eV
                               =    -5523.138323 kJmol-1
  Free energy (equipartition)  =      -58.120941 eV
  - T*S       (equipartition)  =        0.407655 eV
  Uvib        (equipartition)  =        0.330906 eV
  Mean kinetic energy          =        0.809663 eV
  Heat capacity - const volume =        0.000071 eV/K
                               =        6.866443 J/(mol.K)
--------------------------------------------------------------------------------
  Phonon properties (per mole of unit cells): Temperature =    170.000 K
--------------------------------------------------------------------------------
  Zero point energy            =        1.616655 eV
  Entropy                      =        0.000027 eV/K
                               =        2.564679 J/(mol.K)
  Helmholtz free-energy        =      -57.243908 eV
                               =    -5523.161623 kJmol-1
  Free energy (equipartition)  =      -58.096095 eV
  - T*S       (equipartition)  =        0.411819 eV
  Uvib        (equipartition)  =        0.351587 eV
  Mean kinetic energy          =        0.810056 eV
  Heat capacity - const volume =        0.000086 eV/K
                               =        8.328428 J/(mol.K)
--------------------------------------------------------------------------------
  Phonon properties (per mole of unit cells): Temperature =    180.000 K
--------------------------------------------------------------------------------
  Zero point energy            =        1.616655 eV
  Entropy                      =        0.000032 eV/K
                               =        3.086043 J/(mol.K)
  Helmholtz free-energy        =      -57.244201 eV
                               =    -5523.189824 kJmol-1
  Free energy (equipartition)  =      -58.072467 eV
  - T*S       (equipartition)  =        0.414765 eV
  Uvib        (equipartition)  =        0.372269 eV
  Mean kinetic energy          =        0.810529 eV
  Heat capacity - const volume =        0.000103 eV/K
                               =        9.957478 J/(mol.K)
--------------------------------------------------------------------------------
  Phonon properties (per mole of unit cells): Temperature =    190.000 K
--------------------------------------------------------------------------------
  Zero point energy            =        1.616655 eV
  Entropy                      =        0.000038 eV/K
                               =        3.671709 J/(mol.K)
  Helmholtz free-energy        =      -57.244550 eV
                               =    -5523.223558 kJmol-1
  Free energy (equipartition)  =      -58.049989 eV
  - T*S       (equipartition)  =        0.416562 eV
  Uvib        (equipartition)  =        0.392951 eV
  Mean kinetic energy          =        0.811091 eV
  Heat capacity - const volume =        0.000122 eV/K
                               =       11.749785 J/(mol.K)
--------------------------------------------------------------------------------
  Phonon properties (per mole of unit cells): Temperature =    200.000 K
--------------------------------------------------------------------------------
  Zero point energy            =        1.616655 eV
  Entropy                      =        0.000045 eV/K
                               =        4.323310 J/(mol.K)
  Helmholtz free-energy        =      -57.244964 eV
                               =    -5523.263478 kJmol-1
  Free energy (equipartition)  =      -58.028600 eV
  - T*S       (equipartition)  =        0.417270 eV
  Uvib        (equipartition)  =        0.413632 eV
  Mean kinetic energy          =        0.811750 eV
  Heat capacity - const volume =        0.000142 eV/K
                               =       13.699382 J/(mol.K)
--------------------------------------------------------------------------------
  Phonon properties (per mole of unit cells): Temperature =    210.000 K
--------------------------------------------------------------------------------
  Zero point energy            =        1.616655 eV
  Entropy                      =        0.000052 eV/K
                               =        5.041906 J/(mol.K)
  Helmholtz free-energy        =      -57.245449 eV
                               =    -5523.310248 kJmol-1
  Free energy (equipartition)  =      -58.008245 eV
  - T*S       (equipartition)  =        0.416943 eV
  Uvib        (equipartition)  =        0.434314 eV
  Mean kinetic energy          =        0.812513 eV
  Heat capacity - const volume =        0.000164 eV/K
                               =       15.798475 J/(mol.K)
--------------------------------------------------------------------------------
  Phonon properties (per mole of unit cells): Temperature =    220.000 K
--------------------------------------------------------------------------------
  Zero point energy            =        1.616655 eV
  Entropy                      =        0.000060 eV/K
                               =        5.828010 J/(mol.K)
  Helmholtz free-energy        =      -57.246011 eV
                               =    -5523.364541 kJmol-1
  Free energy (equipartition)  =      -57.988875 eV
  - T*S       (equipartition)  =        0.415631 eV
  Uvib        (equipartition)  =        0.454995 eV
  Mean kinetic energy          =        0.813389 eV
  Heat capacity - const volume =        0.000187 eV/K
                               =       18.037775 J/(mol.K)
--------------------------------------------------------------------------------
  Phonon properties (per mole of unit cells): Temperature =    230.000 K
--------------------------------------------------------------------------------
  Zero point energy            =        1.616655 eV
  Entropy                      =        0.000069 eV/K
                               =        6.681625 J/(mol.K)
  Helmholtz free-energy        =      -57.246659 eV
                               =    -5523.427033 kJmol-1
  Free energy (equipartition)  =      -57.970446 eV
  - T*S       (equipartition)  =        0.413379 eV
  Uvib        (equipartition)  =        0.475677 eV
  Mean kinetic energy          =        0.814385 eV
  Heat capacity - const volume =        0.000212 eV/K
                               =       20.406810 J/(mol.K)
--------------------------------------------------------------------------------
  Phonon properties (per mole of unit cells): Temperature =    240.000 K
--------------------------------------------------------------------------------
  Zero point energy            =        1.616655 eV
  Entropy                      =        0.000079 eV/K
                               =        7.602288 J/(mol.K)
  Helmholtz free-energy        =      -57.247399 eV
                               =    -5523.498397 kJmol-1
  Free energy (equipartition)  =      -57.952916 eV
  - T*S       (equipartition)  =        0.410227 eV
  Uvib        (equipartition)  =        0.496359 eV
  Mean kinetic energy          =        0.815507 eV
  Heat capacity - const volume =        0.000237 eV/K
                               =       22.894222 J/(mol.K)
--------------------------------------------------------------------------------
  Phonon properties (per mole of unit cells): Temperature =    250.000 K
--------------------------------------------------------------------------------
  Zero point energy            =        1.616655 eV
  Entropy                      =        0.000089 eV/K
                               =        8.589117 J/(mol.K)
  Helmholtz free-energy        =      -57.248237 eV
                               =    -5523.579299 kJmol-1
  Free energy (equipartition)  =      -57.936248 eV
  - T*S       (equipartition)  =        0.406213 eV
  Uvib        (equipartition)  =        0.517040 eV
  Mean kinetic energy          =        0.816760 eV
  Heat capacity - const volume =        0.000264 eV/K
                               =       25.488050 J/(mol.K)
--------------------------------------------------------------------------------
  Phonon properties (per mole of unit cells): Temperature =    260.000 K
--------------------------------------------------------------------------------
  Zero point energy            =        1.616655 eV
  Entropy                      =        0.000100 eV/K
                               =        9.640856 J/(mol.K)
  Helmholtz free-energy        =      -57.249181 eV
                               =    -5523.670396 kJmol-1
  Free energy (equipartition)  =      -57.920408 eV
  - T*S       (equipartition)  =        0.401372 eV
  Uvib        (equipartition)  =        0.537722 eV
  Mean kinetic energy          =        0.818150 eV
  Heat capacity - const volume =        0.000292 eV/K
                               =       28.175986 J/(mol.K)
--------------------------------------------------------------------------------
  Phonon properties (per mole of unit cells): Temperature =    270.000 K
--------------------------------------------------------------------------------
  Zero point energy            =        1.616655 eV
  Entropy                      =        0.000111 eV/K
                               =       10.755924 J/(mol.K)
  Helmholtz free-energy        =      -57.250238 eV
                               =    -5523.772327 kJmol-1
  Free energy (equipartition)  =      -57.905363 eV
  - T*S       (equipartition)  =        0.395735 eV
  Uvib        (equipartition)  =        0.558403 eV
  Mean kinetic energy          =        0.819681 eV
  Heat capacity - const volume =        0.000321 eV/K
                               =       30.945608 J/(mol.K)
--------------------------------------------------------------------------------
  Phonon properties (per mole of unit cells): Temperature =    280.000 K
--------------------------------------------------------------------------------
  Zero point energy            =        1.616655 eV
  Entropy                      =        0.000124 eV/K
                               =       11.932461 J/(mol.K)
  Helmholtz free-energy        =      -57.251413 eV
                               =    -5523.885719 kJmol-1
  Free energy (equipartition)  =      -57.891085 eV
  - T*S       (equipartition)  =        0.389332 eV
  Uvib        (equipartition)  =        0.579085 eV
  Mean kinetic energy          =        0.821358 eV
  Heat capacity - const volume =        0.000350 eV/K
                               =       33.784579 J/(mol.K)
--------------------------------------------------------------------------------
  Phonon properties (per mole of unit cells): Temperature =    290.000 K
--------------------------------------------------------------------------------
  Zero point energy            =        1.616655 eV
  Entropy                      =        0.000136 eV/K
                               =       13.168376 J/(mol.K)
  Helmholtz free-energy        =      -57.252713 eV
                               =    -5524.011175 kJmol-1
  Free energy (equipartition)  =      -57.877545 eV
  - T*S       (equipartition)  =        0.382190 eV
  Uvib        (equipartition)  =        0.599767 eV
  Mean kinetic energy          =        0.823184 eV
  Heat capacity - const volume =        0.000380 eV/K
                               =       36.680829 J/(mol.K)
--------------------------------------------------------------------------------

  Time to end of properties =       1.2672 seconds


  Peak dynamic memory used =       0.67 MB 


  Timing analysis for GULP :

--------------------------------------------------------------------------------
  Task / Subroutine                                          Time (Seconds)
--------------------------------------------------------------------------------
  Calculation of real space energy and derivatives                0.0005
  Calculation of Brenner energy and derivatives                   1.2300
  Calculation of phonons                                          1.2574
  Disk read/write operations to scratch files                     0.0052
--------------------------------------------------------------------------------
  Total CPU time                                                  1.2672
--------------------------------------------------------------------------------


  Job Finished at 18:11.05 14th August     2020                               

