********************************************************************************
*                       GENERAL UTILITY LATTICE PROGRAM                        *
*                                 Julian Gale                                  *
*                       Curtin Institute for Computation                       *
*                    School of Molecular and Life Sciences                     *
*                    Curtin University, Western Australia                      *
********************************************************************************
* Version = 5.2.0 * Last modified =  17th December 2019                        *
********************************************************************************
*  single       - perform a single point run                                   *
*  property     - calculate properties for final geometry                      *
*  phonon       - calculate phonons for final geometry                         *
********************************************************************************
* ASE calculation                                                              *
********************************************************************************


  Job Started  at 13:02.38 31st July       2020                               

  Number of CPUs =     1


  Total number of configurations input =      1

********************************************************************************
*  Input for Configuration =   1                                               *
********************************************************************************

  Formula = C8                                                          

  Number of irreducible atoms/shells =       8


  Total number atoms/shells =       8

  Dimensionality = 3               :  Bulk   



  Cartesian lattice vectors (Angstroms) :

        3.614100    0.000000    0.000000
        0.000000    3.614100    0.000000
        0.000000    0.000000    3.614100

  Cell parameters (Angstroms/Degrees):

  a =       3.6141    alpha =  90.0000
  b =       3.6141    beta  =  90.0000
  c =       3.6141    gamma =  90.0000

  Initial cell volume =          47.206358 Angs**3

  Shrinking factors =      8     8     8

  Temperature of configuration =   10.0     K 

  Pressure of configuration =         0.000 GPa 

  Fractional coordinates of asymmetric unit :

--------------------------------------------------------------------------------
   No.  Atomic       x           y          z         Charge      Occupancy
        Label      (Frac)      (Frac)     (Frac)        (e)         (Frac)  
--------------------------------------------------------------------------------
      1 C     c    0.000000    0.000000    0.000000     0.00000    1.000000    
      2 C     c    0.000000    0.500000    0.500000     0.00000    1.000000    
      3 C     c    0.500000    0.500000    0.000000     0.00000    1.000000    
      4 C     c    0.500000    0.000000    0.500000     0.00000    1.000000    
      5 C     c    0.750000    0.250000    0.750000     0.00000    1.000000    
      6 C     c    0.250000    0.250000    0.250000     0.00000    1.000000    
      7 C     c    0.250000    0.750000    0.750000     0.00000    1.000000    
      8 C     c    0.750000    0.750000    0.250000     0.00000    1.000000    
--------------------------------------------------------------------------------


  Brillouin zone sampling points :

--------------------------------------------------------------------------------
  Point number          x          y          z            Weight
--------------------------------------------------------------------------------
        1           0.062500   0.062500   0.062500     0.00390625
        2           0.062500   0.062500   0.187500     0.00390625
        3           0.062500   0.062500   0.312500     0.00390625
        4           0.062500   0.062500   0.437500     0.00390625
        5           0.062500   0.062500   0.562500     0.00390625
        6           0.062500   0.062500   0.687500     0.00390625
        7           0.062500   0.062500   0.812500     0.00390625
        8           0.062500   0.062500   0.937500     0.00390625
        9           0.062500   0.187500   0.062500     0.00390625
       10           0.062500   0.187500   0.187500     0.00390625
       11           0.062500   0.187500   0.312500     0.00390625
       12           0.062500   0.187500   0.437500     0.00390625
       13           0.062500   0.187500   0.562500     0.00390625
       14           0.062500   0.187500   0.687500     0.00390625
       15           0.062500   0.187500   0.812500     0.00390625
       16           0.062500   0.187500   0.937500     0.00390625
       17           0.062500   0.312500   0.062500     0.00390625
       18           0.062500   0.312500   0.187500     0.00390625
       19           0.062500   0.312500   0.312500     0.00390625
       20           0.062500   0.312500   0.437500     0.00390625
       21           0.062500   0.312500   0.562500     0.00390625
       22           0.062500   0.312500   0.687500     0.00390625
       23           0.062500   0.312500   0.812500     0.00390625
       24           0.062500   0.312500   0.937500     0.00390625
       25           0.062500   0.437500   0.062500     0.00390625
       26           0.062500   0.437500   0.187500     0.00390625
       27           0.062500   0.437500   0.312500     0.00390625
       28           0.062500   0.437500   0.437500     0.00390625
       29           0.062500   0.437500   0.562500     0.00390625
       30           0.062500   0.437500   0.687500     0.00390625
       31           0.062500   0.437500   0.812500     0.00390625
       32           0.062500   0.437500   0.937500     0.00390625
       33           0.062500   0.562500   0.062500     0.00390625
       34           0.062500   0.562500   0.187500     0.00390625
       35           0.062500   0.562500   0.312500     0.00390625
       36           0.062500   0.562500   0.437500     0.00390625
       37           0.062500   0.562500   0.562500     0.00390625
       38           0.062500   0.562500   0.687500     0.00390625
       39           0.062500   0.562500   0.812500     0.00390625
       40           0.062500   0.562500   0.937500     0.00390625
       41           0.062500   0.687500   0.062500     0.00390625
       42           0.062500   0.687500   0.187500     0.00390625
       43           0.062500   0.687500   0.312500     0.00390625
       44           0.062500   0.687500   0.437500     0.00390625
       45           0.062500   0.687500   0.562500     0.00390625
       46           0.062500   0.687500   0.687500     0.00390625
       47           0.062500   0.687500   0.812500     0.00390625
       48           0.062500   0.687500   0.937500     0.00390625
       49           0.062500   0.812500   0.062500     0.00390625
       50           0.062500   0.812500   0.187500     0.00390625
       51           0.062500   0.812500   0.312500     0.00390625
       52           0.062500   0.812500   0.437500     0.00390625
       53           0.062500   0.812500   0.562500     0.00390625
       54           0.062500   0.812500   0.687500     0.00390625
       55           0.062500   0.812500   0.812500     0.00390625
       56           0.062500   0.812500   0.937500     0.00390625
       57           0.062500   0.937500   0.062500     0.00390625
       58           0.062500   0.937500   0.187500     0.00390625
       59           0.062500   0.937500   0.312500     0.00390625
       60           0.062500   0.937500   0.437500     0.00390625
       61           0.062500   0.937500   0.562500     0.00390625
       62           0.062500   0.937500   0.687500     0.00390625
       63           0.062500   0.937500   0.812500     0.00390625
       64           0.062500   0.937500   0.937500     0.00390625
       65           0.187500   0.062500   0.062500     0.00390625
       66           0.187500   0.062500   0.187500     0.00390625
       67           0.187500   0.062500   0.312500     0.00390625
       68           0.187500   0.062500   0.437500     0.00390625
       69           0.187500   0.062500   0.562500     0.00390625
       70           0.187500   0.062500   0.687500     0.00390625
       71           0.187500   0.062500   0.812500     0.00390625
       72           0.187500   0.062500   0.937500     0.00390625
       73           0.187500   0.187500   0.062500     0.00390625
       74           0.187500   0.187500   0.187500     0.00390625
       75           0.187500   0.187500   0.312500     0.00390625
       76           0.187500   0.187500   0.437500     0.00390625
       77           0.187500   0.187500   0.562500     0.00390625
       78           0.187500   0.187500   0.687500     0.00390625
       79           0.187500   0.187500   0.812500     0.00390625
       80           0.187500   0.187500   0.937500     0.00390625
       81           0.187500   0.312500   0.062500     0.00390625
       82           0.187500   0.312500   0.187500     0.00390625
       83           0.187500   0.312500   0.312500     0.00390625
       84           0.187500   0.312500   0.437500     0.00390625
       85           0.187500   0.312500   0.562500     0.00390625
       86           0.187500   0.312500   0.687500     0.00390625
       87           0.187500   0.312500   0.812500     0.00390625
       88           0.187500   0.312500   0.937500     0.00390625
       89           0.187500   0.437500   0.062500     0.00390625
       90           0.187500   0.437500   0.187500     0.00390625
       91           0.187500   0.437500   0.312500     0.00390625
       92           0.187500   0.437500   0.437500     0.00390625
       93           0.187500   0.437500   0.562500     0.00390625
       94           0.187500   0.437500   0.687500     0.00390625
       95           0.187500   0.437500   0.812500     0.00390625
       96           0.187500   0.437500   0.937500     0.00390625
       97           0.187500   0.562500   0.062500     0.00390625
       98           0.187500   0.562500   0.187500     0.00390625
       99           0.187500   0.562500   0.312500     0.00390625
      100           0.187500   0.562500   0.437500     0.00390625
      101           0.187500   0.562500   0.562500     0.00390625
      102           0.187500   0.562500   0.687500     0.00390625
      103           0.187500   0.562500   0.812500     0.00390625
      104           0.187500   0.562500   0.937500     0.00390625
      105           0.187500   0.687500   0.062500     0.00390625
      106           0.187500   0.687500   0.187500     0.00390625
      107           0.187500   0.687500   0.312500     0.00390625
      108           0.187500   0.687500   0.437500     0.00390625
      109           0.187500   0.687500   0.562500     0.00390625
      110           0.187500   0.687500   0.687500     0.00390625
      111           0.187500   0.687500   0.812500     0.00390625
      112           0.187500   0.687500   0.937500     0.00390625
      113           0.187500   0.812500   0.062500     0.00390625
      114           0.187500   0.812500   0.187500     0.00390625
      115           0.187500   0.812500   0.312500     0.00390625
      116           0.187500   0.812500   0.437500     0.00390625
      117           0.187500   0.812500   0.562500     0.00390625
      118           0.187500   0.812500   0.687500     0.00390625
      119           0.187500   0.812500   0.812500     0.00390625
      120           0.187500   0.812500   0.937500     0.00390625
      121           0.187500   0.937500   0.062500     0.00390625
      122           0.187500   0.937500   0.187500     0.00390625
      123           0.187500   0.937500   0.312500     0.00390625
      124           0.187500   0.937500   0.437500     0.00390625
      125           0.187500   0.937500   0.562500     0.00390625
      126           0.187500   0.937500   0.687500     0.00390625
      127           0.187500   0.937500   0.812500     0.00390625
      128           0.187500   0.937500   0.937500     0.00390625
      129           0.312500   0.062500   0.062500     0.00390625
      130           0.312500   0.062500   0.187500     0.00390625
      131           0.312500   0.062500   0.312500     0.00390625
      132           0.312500   0.062500   0.437500     0.00390625
      133           0.312500   0.062500   0.562500     0.00390625
      134           0.312500   0.062500   0.687500     0.00390625
      135           0.312500   0.062500   0.812500     0.00390625
      136           0.312500   0.062500   0.937500     0.00390625
      137           0.312500   0.187500   0.062500     0.00390625
      138           0.312500   0.187500   0.187500     0.00390625
      139           0.312500   0.187500   0.312500     0.00390625
      140           0.312500   0.187500   0.437500     0.00390625
      141           0.312500   0.187500   0.562500     0.00390625
      142           0.312500   0.187500   0.687500     0.00390625
      143           0.312500   0.187500   0.812500     0.00390625
      144           0.312500   0.187500   0.937500     0.00390625
      145           0.312500   0.312500   0.062500     0.00390625
      146           0.312500   0.312500   0.187500     0.00390625
      147           0.312500   0.312500   0.312500     0.00390625
      148           0.312500   0.312500   0.437500     0.00390625
      149           0.312500   0.312500   0.562500     0.00390625
      150           0.312500   0.312500   0.687500     0.00390625
      151           0.312500   0.312500   0.812500     0.00390625
      152           0.312500   0.312500   0.937500     0.00390625
      153           0.312500   0.437500   0.062500     0.00390625
      154           0.312500   0.437500   0.187500     0.00390625
      155           0.312500   0.437500   0.312500     0.00390625
      156           0.312500   0.437500   0.437500     0.00390625
      157           0.312500   0.437500   0.562500     0.00390625
      158           0.312500   0.437500   0.687500     0.00390625
      159           0.312500   0.437500   0.812500     0.00390625
      160           0.312500   0.437500   0.937500     0.00390625
      161           0.312500   0.562500   0.062500     0.00390625
      162           0.312500   0.562500   0.187500     0.00390625
      163           0.312500   0.562500   0.312500     0.00390625
      164           0.312500   0.562500   0.437500     0.00390625
      165           0.312500   0.562500   0.562500     0.00390625
      166           0.312500   0.562500   0.687500     0.00390625
      167           0.312500   0.562500   0.812500     0.00390625
      168           0.312500   0.562500   0.937500     0.00390625
      169           0.312500   0.687500   0.062500     0.00390625
      170           0.312500   0.687500   0.187500     0.00390625
      171           0.312500   0.687500   0.312500     0.00390625
      172           0.312500   0.687500   0.437500     0.00390625
      173           0.312500   0.687500   0.562500     0.00390625
      174           0.312500   0.687500   0.687500     0.00390625
      175           0.312500   0.687500   0.812500     0.00390625
      176           0.312500   0.687500   0.937500     0.00390625
      177           0.312500   0.812500   0.062500     0.00390625
      178           0.312500   0.812500   0.187500     0.00390625
      179           0.312500   0.812500   0.312500     0.00390625
      180           0.312500   0.812500   0.437500     0.00390625
      181           0.312500   0.812500   0.562500     0.00390625
      182           0.312500   0.812500   0.687500     0.00390625
      183           0.312500   0.812500   0.812500     0.00390625
      184           0.312500   0.812500   0.937500     0.00390625
      185           0.312500   0.937500   0.062500     0.00390625
      186           0.312500   0.937500   0.187500     0.00390625
      187           0.312500   0.937500   0.312500     0.00390625
      188           0.312500   0.937500   0.437500     0.00390625
      189           0.312500   0.937500   0.562500     0.00390625
      190           0.312500   0.937500   0.687500     0.00390625
      191           0.312500   0.937500   0.812500     0.00390625
      192           0.312500   0.937500   0.937500     0.00390625
      193           0.437500   0.062500   0.062500     0.00390625
      194           0.437500   0.062500   0.187500     0.00390625
      195           0.437500   0.062500   0.312500     0.00390625
      196           0.437500   0.062500   0.437500     0.00390625
      197           0.437500   0.062500   0.562500     0.00390625
      198           0.437500   0.062500   0.687500     0.00390625
      199           0.437500   0.062500   0.812500     0.00390625
      200           0.437500   0.062500   0.937500     0.00390625
      201           0.437500   0.187500   0.062500     0.00390625
      202           0.437500   0.187500   0.187500     0.00390625
      203           0.437500   0.187500   0.312500     0.00390625
      204           0.437500   0.187500   0.437500     0.00390625
      205           0.437500   0.187500   0.562500     0.00390625
      206           0.437500   0.187500   0.687500     0.00390625
      207           0.437500   0.187500   0.812500     0.00390625
      208           0.437500   0.187500   0.937500     0.00390625
      209           0.437500   0.312500   0.062500     0.00390625
      210           0.437500   0.312500   0.187500     0.00390625
      211           0.437500   0.312500   0.312500     0.00390625
      212           0.437500   0.312500   0.437500     0.00390625
      213           0.437500   0.312500   0.562500     0.00390625
      214           0.437500   0.312500   0.687500     0.00390625
      215           0.437500   0.312500   0.812500     0.00390625
      216           0.437500   0.312500   0.937500     0.00390625
      217           0.437500   0.437500   0.062500     0.00390625
      218           0.437500   0.437500   0.187500     0.00390625
      219           0.437500   0.437500   0.312500     0.00390625
      220           0.437500   0.437500   0.437500     0.00390625
      221           0.437500   0.437500   0.562500     0.00390625
      222           0.437500   0.437500   0.687500     0.00390625
      223           0.437500   0.437500   0.812500     0.00390625
      224           0.437500   0.437500   0.937500     0.00390625
      225           0.437500   0.562500   0.062500     0.00390625
      226           0.437500   0.562500   0.187500     0.00390625
      227           0.437500   0.562500   0.312500     0.00390625
      228           0.437500   0.562500   0.437500     0.00390625
      229           0.437500   0.562500   0.562500     0.00390625
      230           0.437500   0.562500   0.687500     0.00390625
      231           0.437500   0.562500   0.812500     0.00390625
      232           0.437500   0.562500   0.937500     0.00390625
      233           0.437500   0.687500   0.062500     0.00390625
      234           0.437500   0.687500   0.187500     0.00390625
      235           0.437500   0.687500   0.312500     0.00390625
      236           0.437500   0.687500   0.437500     0.00390625
      237           0.437500   0.687500   0.562500     0.00390625
      238           0.437500   0.687500   0.687500     0.00390625
      239           0.437500   0.687500   0.812500     0.00390625
      240           0.437500   0.687500   0.937500     0.00390625
      241           0.437500   0.812500   0.062500     0.00390625
      242           0.437500   0.812500   0.187500     0.00390625
      243           0.437500   0.812500   0.312500     0.00390625
      244           0.437500   0.812500   0.437500     0.00390625
      245           0.437500   0.812500   0.562500     0.00390625
      246           0.437500   0.812500   0.687500     0.00390625
      247           0.437500   0.812500   0.812500     0.00390625
      248           0.437500   0.812500   0.937500     0.00390625
      249           0.437500   0.937500   0.062500     0.00390625
      250           0.437500   0.937500   0.187500     0.00390625
      251           0.437500   0.937500   0.312500     0.00390625
      252           0.437500   0.937500   0.437500     0.00390625
      253           0.437500   0.937500   0.562500     0.00390625
      254           0.437500   0.937500   0.687500     0.00390625
      255           0.437500   0.937500   0.812500     0.00390625
      256           0.437500   0.937500   0.937500     0.00390625
--------------------------------------------------------------------------------


********************************************************************************
*  General input information                                                   *
********************************************************************************

  Species output for all configurations : 

--------------------------------------------------------------------------------
  Species    Type    Atomic    Atomic    Charge       Radii (Angs)     Library
                     Number     Mass       (e)     Cova   Ionic  VDW   Symbol
--------------------------------------------------------------------------------
    C        Core        6      12.01   0.000000   0.770  0.000  1.530          
--------------------------------------------------------------------------------


  Lattice summation method               =    Ewald          (3-D)
                                         =    Parry          (2-D)
                                         =    Saunders et al (1-D)
  Accuracy factor for lattice sums       =   12.000


  Analytic derivatives to be used

  Time limit = Infinity

  Maximum range for interatomic potentials =    100000.000000 Angstroms

  Brenner et al 2002 potential to be used with explicit splines for P


********************************************************************************
*  Output for configuration   1                                                *
********************************************************************************


  Components of energy : 

--------------------------------------------------------------------------------
  Interatomic potentials     =           0.00000000 eV    
  Brenner potentials         =         -58.85941816 eV    
  Monopole - monopole (real) =           0.00000000 eV    
  Monopole - monopole (recip)=           0.00000000 eV    
  Monopole - monopole (total)=           0.00000000 eV    
--------------------------------------------------------------------------------
  Total lattice energy       =         -58.85941816 eV    
--------------------------------------------------------------------------------
  Total lattice energy       =           -5679.0341 kJ/(mole unit cells)
--------------------------------------------------------------------------------


  Elastic Constant Matrix: (Units=GPa)

-------------------------------------------------------------------------------
  Indices      1         2         3         4         5         6    
-------------------------------------------------------------------------------
       1    968.5711   85.9153   85.9153   -0.0000   -0.0000   -0.0000
       2     85.9153  968.5711   85.9153   -0.0000   -0.0000   -0.0000
       3     85.9153   85.9153  968.5711   -0.0000   -0.0000   -0.0000
       4     -0.0000   -0.0000   -0.0000  641.8355    0.0000    0.0000
       5     -0.0000   -0.0000   -0.0000    0.0000  641.8355    0.0000
       6     -0.0000   -0.0000   -0.0000    0.0000    0.0000  641.8355
-------------------------------------------------------------------------------


  Elastic Compliance Matrix: (Units=1/GPa)

-------------------------------------------------------------------------------
  Indices      1         2         3         4         5         6    
-------------------------------------------------------------------------------
       1    0.001048 -0.000085 -0.000085  0.000000  0.000000  0.000000
       2   -0.000085  0.001048 -0.000085  0.000000  0.000000  0.000000
       3   -0.000085 -0.000085  0.001048  0.000000  0.000000  0.000000
       4    0.000000  0.000000  0.000000  0.001558 -0.000000 -0.000000
       5    0.000000  0.000000  0.000000 -0.000000  0.001558 -0.000000
       6    0.000000  0.000000  0.000000 -0.000000 -0.000000  0.001558
-------------------------------------------------------------------------------

  Mechanical properties :

-------------------------------------------------------------------------------
  Convention :                    Reuss         Voigt         Hill
-------------------------------------------------------------------------------
  Bulk  Modulus (GPa)     =     380.13389     380.13389     380.13389
  Shear Modulus (GPa)     =     543.13155     561.63246     552.38200
-------------------------------------------------------------------------------
  Velocity S-wave (km/s)  =      12.67676      12.89086      12.78426
  Velocity P-wave (km/s)  =      18.07595      18.27672      18.17661
-------------------------------------------------------------------------------
  Compressibility (1/GPa) =    0.00263065
-------------------------------------------------------------------------------
  Stress axis :                     x             y             z
-------------------------------------------------------------------------------
  Youngs Moduli (GPa)     =     954.57099     954.57099     954.57099
-------------------------------------------------------------------------------
  Poissons Ratio (x)      =                     0.08148       0.08148
  Poissons Ratio (y)      =       0.08148                     0.08148
  Poissons Ratio (z)      =       0.08148       0.08148
-------------------------------------------------------------------------------


  Piezoelectric Strain Matrix: (Units=C/m**2)

-------------------------------------------------------------------------------
  Indices      1         2         3         4         5         6    
-------------------------------------------------------------------------------
       x    -0.00000  -0.00000  -0.00000  -0.00000  -0.00000  -0.00000
       y    -0.00000  -0.00000  -0.00000  -0.00000  -0.00000  -0.00000
       z    -0.00000  -0.00000  -0.00000  -0.00000  -0.00000  -0.00000
-------------------------------------------------------------------------------


  Piezoelectric Stress Matrix: (Units=10**-11 C/N)

-------------------------------------------------------------------------------
  Indices      1         2         3         4         5         6    
-------------------------------------------------------------------------------
       x     0.00000   0.00000   0.00000   0.00000   0.00000   0.00000
       y     0.00000   0.00000   0.00000   0.00000   0.00000   0.00000
       z     0.00000   0.00000   0.00000   0.00000   0.00000   0.00000
-------------------------------------------------------------------------------


  Static dielectric constant tensor : 

-------------------------------------------------------------------------------
              x         y         z
-------------------------------------------------------------------------------
       x     1.00000   0.00000   0.00000
       y     0.00000   1.00000   0.00000
       z     0.00000   0.00000   1.00000
--------------------------------------------------------------------------------

  Static refractive indices : 

-------------------------------------------------------------------------------
    1 =    1.00000      2 =    1.00000      3 =    1.00000
-------------------------------------------------------------------------------


  Phonon Calculation : 

  Number of k points for this configuration =      256

--------------------------------------------------------------------------------
  K point      1 =   0.062500  0.062500  0.062500  Weight =    0.004
--------------------------------------------------------------------------------

  Frequencies (cm-1) [NB: Negative implies an imaginary mode]:

  122.12  122.12  188.98 1017.27 1017.27 1017.27 1027.44 1027.44 1027.44
 1146.57 1146.57 1146.57 1180.29 1180.29 1180.29 1214.16 1214.16 1214.16
 1280.69 1280.69 1280.69 1483.85 1483.85 1488.38


--------------------------------------------------------------------------------
  K point      2 =   0.062500  0.062500  0.187500  Weight =    0.004
--------------------------------------------------------------------------------

  Frequencies (cm-1) [NB: Negative implies an imaginary mode]:

  239.13  253.44  339.79  926.59  933.49 1009.43 1009.43 1037.72 1037.72
 1074.05 1105.03 1105.03 1171.61 1171.61 1245.14 1245.14 1246.31 1253.99
 1293.29 1293.29 1345.26 1471.89 1472.60 1485.27


--------------------------------------------------------------------------------
  K point      3 =   0.062500  0.062500  0.312500  Weight =    0.004
--------------------------------------------------------------------------------

  Frequencies (cm-1) [NB: Negative implies an imaginary mode]:

  390.22  399.95  505.00  811.09  815.38  955.69 1006.99 1006.99 1045.88
 1045.88 1066.40 1066.40 1156.53 1156.53 1273.62 1273.62 1306.82 1306.82
 1313.12 1317.64 1396.35 1449.80 1450.01 1476.12


--------------------------------------------------------------------------------
  K point      4 =   0.062500  0.062500  0.437500  Weight =    0.004
--------------------------------------------------------------------------------

  Frequencies (cm-1) [NB: Negative implies an imaginary mode]:

  540.57  544.52  666.79  682.55  683.35  818.47 1012.79 1012.79 1034.50
 1034.50 1053.80 1053.80 1146.79 1146.79 1289.72 1289.72 1314.38 1314.38
 1370.20 1372.80 1415.91 1416.91 1433.83 1459.65


--------------------------------------------------------------------------------
  K point      5 =   0.062500  0.062500  0.562500  Weight =    0.004
--------------------------------------------------------------------------------

  Frequencies (cm-1) [NB: Negative implies an imaginary mode]:

  540.57  544.52  666.79  682.55  683.35  818.47 1012.79 1012.79 1034.50
 1034.50 1053.80 1053.80 1146.79 1146.79 1289.72 1289.72 1314.38 1314.38
 1370.20 1372.80 1415.91 1416.91 1433.83 1459.65


--------------------------------------------------------------------------------
  K point      6 =   0.062500  0.062500  0.687500  Weight =    0.004
--------------------------------------------------------------------------------

  Frequencies (cm-1) [NB: Negative implies an imaginary mode]:

  390.22  399.95  505.00  811.09  815.38  955.69 1006.99 1006.99 1045.88
 1045.88 1066.40 1066.40 1156.53 1156.53 1273.62 1273.62 1306.82 1306.82
 1313.12 1317.64 1396.35 1449.80 1450.01 1476.12


--------------------------------------------------------------------------------
  K point      7 =   0.062500  0.062500  0.812500  Weight =    0.004
--------------------------------------------------------------------------------

  Frequencies (cm-1) [NB: Negative implies an imaginary mode]:

  239.13  253.44  339.79  926.59  933.49 1009.43 1009.43 1037.72 1037.72
 1074.05 1105.03 1105.03 1171.61 1171.61 1245.14 1245.14 1246.31 1253.99
 1293.29 1293.29 1345.26 1471.89 1472.60 1485.27


--------------------------------------------------------------------------------
  K point      8 =   0.062500  0.062500  0.937500  Weight =    0.004
--------------------------------------------------------------------------------

  Frequencies (cm-1) [NB: Negative implies an imaginary mode]:

  122.12  122.12  188.98 1017.27 1017.27 1017.27 1027.44 1027.44 1027.44
 1146.57 1146.57 1146.57 1180.29 1180.29 1180.29 1214.16 1214.16 1214.16
 1280.69 1280.69 1280.69 1483.85 1483.85 1488.38


--------------------------------------------------------------------------------
  K point      9 =   0.062500  0.187500  0.062500  Weight =    0.004
--------------------------------------------------------------------------------

  Frequencies (cm-1) [NB: Negative implies an imaginary mode]:

  239.13  253.44  339.79  926.59  933.49 1009.43 1009.43 1037.72 1037.72
 1074.05 1105.03 1105.03 1171.61 1171.61 1245.14 1245.14 1246.31 1253.99
 1293.29 1293.29 1345.26 1471.89 1472.60 1485.27


--------------------------------------------------------------------------------
  K point     10 =   0.062500  0.187500  0.187500  Weight =    0.004
--------------------------------------------------------------------------------

  Frequencies (cm-1) [NB: Negative implies an imaginary mode]:

  287.86  333.58  453.24  925.05  925.05  945.67  945.67  977.68 1049.51
 1052.70 1052.70 1082.09 1196.42 1228.77 1241.27 1241.27 1276.87 1276.87
 1317.53 1340.46 1340.46 1457.86 1462.20 1483.69


--------------------------------------------------------------------------------
  K point     11 =   0.062500  0.187500  0.312500  Weight =    0.004
--------------------------------------------------------------------------------

  Frequencies (cm-1) [NB: Negative implies an imaginary mode]:

  400.61  454.14  588.11  809.09  834.21  926.48  950.77  960.94  962.71
 1032.66 1032.78 1066.53 1197.26 1230.90 1252.83 1304.59 1306.02 1327.30
 1330.67 1334.61 1387.53 1434.71 1442.03 1474.25


--------------------------------------------------------------------------------
  K point     12 =   0.062500  0.187500  0.437500  Weight =    0.004
--------------------------------------------------------------------------------

  Frequencies (cm-1) [NB: Negative implies an imaginary mode]:

  537.58  584.15  677.16  712.60  722.71  848.71  928.29  934.32  983.68
 1007.53 1030.67 1046.53 1203.93 1217.34 1284.26 1308.49 1330.71 1339.04
 1359.93 1373.86 1402.54 1412.35 1426.37 1455.34


--------------------------------------------------------------------------------
  K point     13 =   0.062500  0.187500  0.562500  Weight =    0.004
--------------------------------------------------------------------------------

  Frequencies (cm-1) [NB: Negative implies an imaginary mode]:

  537.58  584.15  677.16  712.60  722.71  848.71  928.29  934.32  983.68
 1007.53 1030.67 1046.53 1203.93 1217.34 1284.26 1308.49 1330.71 1339.04
 1359.93 1373.86 1402.54 1412.35 1426.37 1455.34


--------------------------------------------------------------------------------
  K point     14 =   0.062500  0.187500  0.687500  Weight =    0.004
--------------------------------------------------------------------------------

  Frequencies (cm-1) [NB: Negative implies an imaginary mode]:

  400.61  454.14  588.11  809.09  834.21  926.48  950.77  960.94  962.71
 1032.66 1032.78 1066.53 1197.26 1230.90 1252.83 1304.59 1306.02 1327.30
 1330.67 1334.61 1387.53 1434.71 1442.03 1474.25


--------------------------------------------------------------------------------
  K point     15 =   0.062500  0.187500  0.812500  Weight =    0.004
--------------------------------------------------------------------------------

  Frequencies (cm-1) [NB: Negative implies an imaginary mode]:

  287.86  333.58  453.24  925.05  925.05  945.67  945.67  977.68 1049.51
 1052.70 1052.70 1082.09 1196.42 1228.77 1241.27 1241.27 1276.87 1276.87
 1317.53 1340.46 1340.46 1457.86 1462.20 1483.69


--------------------------------------------------------------------------------
  K point     16 =   0.062500  0.187500  0.937500  Weight =    0.004
--------------------------------------------------------------------------------

  Frequencies (cm-1) [NB: Negative implies an imaginary mode]:

  239.13  253.44  339.79  926.59  933.49 1009.43 1009.43 1037.72 1037.72
 1074.05 1105.03 1105.03 1171.61 1171.61 1245.14 1245.14 1246.31 1253.99
 1293.29 1293.29 1345.26 1471.89 1472.60 1485.27


--------------------------------------------------------------------------------
  K point     17 =   0.062500  0.312500  0.062500  Weight =    0.004
--------------------------------------------------------------------------------

  Frequencies (cm-1) [NB: Negative implies an imaginary mode]:

  390.22  399.95  505.00  811.09  815.38  955.69 1006.99 1006.99 1045.88
 1045.88 1066.40 1066.40 1156.53 1156.53 1273.62 1273.62 1306.82 1306.82
 1313.12 1317.64 1396.35 1449.80 1450.01 1476.12


--------------------------------------------------------------------------------
  K point     18 =   0.062500  0.312500  0.187500  Weight =    0.004
--------------------------------------------------------------------------------

  Frequencies (cm-1) [NB: Negative implies an imaginary mode]:

  400.61  454.14  588.11  809.09  834.21  926.48  950.77  960.94  962.71
 1032.66 1032.78 1066.53 1197.26 1230.90 1252.83 1304.59 1306.02 1327.30
 1330.67 1334.61 1387.53 1434.71 1442.03 1474.25


--------------------------------------------------------------------------------
  K point     19 =   0.062500  0.312500  0.312500  Weight =    0.004
--------------------------------------------------------------------------------

  Frequencies (cm-1) [NB: Negative implies an imaginary mode]:

  462.10  547.01  691.85  810.01  810.01  869.88  869.88  895.27  972.02
  972.02 1001.28 1047.98 1233.41 1265.38 1292.51 1292.51 1341.70 1341.70
 1352.79 1369.54 1369.54 1410.54 1426.44 1464.04


--------------------------------------------------------------------------------
  K point     20 =   0.062500  0.312500  0.437500  Weight =    0.004
--------------------------------------------------------------------------------

  Frequencies (cm-1) [NB: Negative implies an imaginary mode]:

  564.25  655.25  685.30  765.59  795.82  822.19  850.67  891.09  915.75
  962.42  989.96 1016.36 1253.84 1274.23 1305.32 1340.95 1341.72 1354.42
 1359.06 1374.96 1379.47 1403.69 1410.24 1442.78


--------------------------------------------------------------------------------
  K point     21 =   0.062500  0.312500  0.562500  Weight =    0.004
--------------------------------------------------------------------------------

  Frequencies (cm-1) [NB: Negative implies an imaginary mode]:

  564.25  655.25  685.30  765.59  795.82  822.19  850.67  891.09  915.75
  962.42  989.96 1016.36 1253.84 1274.23 1305.32 1340.95 1341.72 1354.42
 1359.06 1374.96 1379.47 1403.69 1410.24 1442.78


--------------------------------------------------------------------------------
  K point     22 =   0.062500  0.312500  0.687500  Weight =    0.004
--------------------------------------------------------------------------------

  Frequencies (cm-1) [NB: Negative implies an imaginary mode]:

  462.10  547.01  691.85  810.01  810.01  869.88  869.88  895.27  972.02
  972.02 1001.28 1047.98 1233.41 1265.38 1292.51 1292.51 1341.70 1341.70
 1352.79 1369.54 1369.54 1410.54 1426.44 1464.04


--------------------------------------------------------------------------------
  K point     23 =   0.062500  0.312500  0.812500  Weight =    0.004
--------------------------------------------------------------------------------

  Frequencies (cm-1) [NB: Negative implies an imaginary mode]:

  400.61  454.14  588.11  809.09  834.21  926.48  950.77  960.94  962.71
 1032.66 1032.78 1066.53 1197.26 1230.90 1252.83 1304.59 1306.02 1327.30
 1330.67 1334.61 1387.53 1434.71 1442.03 1474.25


--------------------------------------------------------------------------------
  K point     24 =   0.062500  0.312500  0.937500  Weight =    0.004
--------------------------------------------------------------------------------

  Frequencies (cm-1) [NB: Negative implies an imaginary mode]:

  390.22  399.95  505.00  811.09  815.38  955.69 1006.99 1006.99 1045.88
 1045.88 1066.40 1066.40 1156.53 1156.53 1273.62 1273.62 1306.82 1306.82
 1313.12 1317.64 1396.35 1449.80 1450.01 1476.12


--------------------------------------------------------------------------------
  K point     25 =   0.062500  0.437500  0.062500  Weight =    0.004
--------------------------------------------------------------------------------

  Frequencies (cm-1) [NB: Negative implies an imaginary mode]:

  540.57  544.52  666.79  682.55  683.35  818.47 1012.79 1012.79 1034.50
 1034.50 1053.80 1053.80 1146.79 1146.79 1289.72 1289.72 1314.38 1314.38
 1370.20 1372.80 1415.91 1416.91 1433.83 1459.65


--------------------------------------------------------------------------------
  K point     26 =   0.062500  0.437500  0.187500  Weight =    0.004
--------------------------------------------------------------------------------

  Frequencies (cm-1) [NB: Negative implies an imaginary mode]:

  537.58  584.15  677.16  712.60  722.71  848.71  928.29  934.32  983.68
 1007.53 1030.67 1046.53 1203.93 1217.34 1284.26 1308.49 1330.71 1339.04
 1359.93 1373.86 1402.54 1412.35 1426.37 1455.34


--------------------------------------------------------------------------------
  K point     27 =   0.062500  0.437500  0.312500  Weight =    0.004
--------------------------------------------------------------------------------

  Frequencies (cm-1) [NB: Negative implies an imaginary mode]:

  564.25  655.25  685.30  765.59  795.82  822.19  850.67  891.09  915.75
  962.42  989.96 1016.36 1253.84 1274.23 1305.32 1340.95 1341.72 1354.42
 1359.06 1374.96 1379.47 1403.69 1410.24 1442.78


--------------------------------------------------------------------------------
  K point     28 =   0.062500  0.437500  0.437500  Weight =    0.004
--------------------------------------------------------------------------------

  Frequencies (cm-1) [NB: Negative implies an imaginary mode]:

  627.76  718.09  718.09  742.06  775.42  832.20  832.20  869.05  901.46
  935.08  935.08  977.24 1287.68 1316.12 1316.12 1343.84 1350.30 1371.67
 1371.67 1372.06 1386.15 1386.15 1390.37 1419.44


--------------------------------------------------------------------------------
  K point     29 =   0.062500  0.437500  0.562500  Weight =    0.004
--------------------------------------------------------------------------------

  Frequencies (cm-1) [NB: Negative implies an imaginary mode]:

  627.76  718.09  718.09  742.06  775.42  832.20  832.20  869.05  901.46
  935.08  935.08  977.24 1287.68 1316.12 1316.12 1343.84 1350.30 1371.67
 1371.67 1372.06 1386.15 1386.15 1390.37 1419.44


--------------------------------------------------------------------------------
  K point     30 =   0.062500  0.437500  0.687500  Weight =    0.004
--------------------------------------------------------------------------------

  Frequencies (cm-1) [NB: Negative implies an imaginary mode]:

  564.25  655.25  685.30  765.59  795.82  822.19  850.67  891.09  915.75
  962.42  989.96 1016.36 1253.84 1274.23 1305.32 1340.95 1341.72 1354.42
 1359.06 1374.96 1379.47 1403.69 1410.24 1442.78


--------------------------------------------------------------------------------
  K point     31 =   0.062500  0.437500  0.812500  Weight =    0.004
--------------------------------------------------------------------------------

  Frequencies (cm-1) [NB: Negative implies an imaginary mode]:

  537.58  584.15  677.16  712.60  722.71  848.71  928.29  934.32  983.68
 1007.53 1030.67 1046.53 1203.93 1217.34 1284.26 1308.49 1330.71 1339.04
 1359.93 1373.86 1402.54 1412.35 1426.37 1455.34


--------------------------------------------------------------------------------
  K point     32 =   0.062500  0.437500  0.937500  Weight =    0.004
--------------------------------------------------------------------------------

  Frequencies (cm-1) [NB: Negative implies an imaginary mode]:

  540.57  544.52  666.79  682.55  683.35  818.47 1012.79 1012.79 1034.50
 1034.50 1053.80 1053.80 1146.79 1146.79 1289.72 1289.72 1314.38 1314.38
 1370.20 1372.80 1415.91 1416.91 1433.83 1459.65


--------------------------------------------------------------------------------
  K point     33 =   0.062500  0.562500  0.062500  Weight =    0.004
--------------------------------------------------------------------------------

  Frequencies (cm-1) [NB: Negative implies an imaginary mode]:

  540.57  544.52  666.79  682.55  683.35  818.47 1012.79 1012.79 1034.50
 1034.50 1053.80 1053.80 1146.79 1146.79 1289.72 1289.72 1314.38 1314.38
 1370.20 1372.80 1415.91 1416.91 1433.83 1459.65


--------------------------------------------------------------------------------
  K point     34 =   0.062500  0.562500  0.187500  Weight =    0.004
--------------------------------------------------------------------------------

  Frequencies (cm-1) [NB: Negative implies an imaginary mode]:

  537.58  584.15  677.16  712.60  722.71  848.71  928.29  934.32  983.68
 1007.53 1030.67 1046.53 1203.93 1217.34 1284.26 1308.49 1330.71 1339.04
 1359.93 1373.86 1402.54 1412.35 1426.37 1455.34


--------------------------------------------------------------------------------
  K point     35 =   0.062500  0.562500  0.312500  Weight =    0.004
--------------------------------------------------------------------------------

  Frequencies (cm-1) [NB: Negative implies an imaginary mode]:

  564.25  655.25  685.30  765.59  795.82  822.19  850.67  891.09  915.75
  962.42  989.96 1016.36 1253.84 1274.23 1305.32 1340.95 1341.72 1354.42
 1359.06 1374.96 1379.47 1403.69 1410.24 1442.78


--------------------------------------------------------------------------------
  K point     36 =   0.062500  0.562500  0.437500  Weight =    0.004
--------------------------------------------------------------------------------

  Frequencies (cm-1) [NB: Negative implies an imaginary mode]:

  627.76  718.09  718.09  742.06  775.42  832.20  832.20  869.05  901.46
  935.08  935.08  977.24 1287.68 1316.12 1316.12 1343.84 1350.30 1371.67
 1371.67 1372.06 1386.15 1386.15 1390.37 1419.44


--------------------------------------------------------------------------------
  K point     37 =   0.062500  0.562500  0.562500  Weight =    0.004
--------------------------------------------------------------------------------

  Frequencies (cm-1) [NB: Negative implies an imaginary mode]:

  627.76  718.09  718.09  742.06  775.42  832.20  832.20  869.05  901.46
  935.08  935.08  977.24 1287.68 1316.12 1316.12 1343.84 1350.30 1371.67
 1371.67 1372.06 1386.15 1386.15 1390.37 1419.44


--------------------------------------------------------------------------------
  K point     38 =   0.062500  0.562500  0.687500  Weight =    0.004
--------------------------------------------------------------------------------

  Frequencies (cm-1) [NB: Negative implies an imaginary mode]:

  564.25  655.25  685.30  765.59  795.82  822.19  850.67  891.09  915.75
  962.42  989.96 1016.36 1253.84 1274.23 1305.32 1340.95 1341.72 1354.42
 1359.06 1374.96 1379.47 1403.69 1410.24 1442.78


--------------------------------------------------------------------------------
  K point     39 =   0.062500  0.562500  0.812500  Weight =    0.004
--------------------------------------------------------------------------------

  Frequencies (cm-1) [NB: Negative implies an imaginary mode]:

  537.58  584.15  677.16  712.60  722.71  848.71  928.29  934.32  983.68
 1007.53 1030.67 1046.53 1203.93 1217.34 1284.26 1308.49 1330.71 1339.04
 1359.93 1373.86 1402.54 1412.35 1426.37 1455.34


--------------------------------------------------------------------------------
  K point     40 =   0.062500  0.562500  0.937500  Weight =    0.004
--------------------------------------------------------------------------------

  Frequencies (cm-1) [NB: Negative implies an imaginary mode]:

  540.57  544.52  666.79  682.55  683.35  818.47 1012.79 1012.79 1034.50
 1034.50 1053.80 1053.80 1146.79 1146.79 1289.72 1289.72 1314.38 1314.38
 1370.20 1372.80 1415.91 1416.91 1433.83 1459.65


--------------------------------------------------------------------------------
  K point     41 =   0.062500  0.687500  0.062500  Weight =    0.004
--------------------------------------------------------------------------------

  Frequencies (cm-1) [NB: Negative implies an imaginary mode]:

  390.22  399.95  505.00  811.09  815.38  955.69 1006.99 1006.99 1045.88
 1045.88 1066.40 1066.40 1156.53 1156.53 1273.62 1273.62 1306.82 1306.82
 1313.12 1317.64 1396.35 1449.80 1450.01 1476.12


--------------------------------------------------------------------------------
  K point     42 =   0.062500  0.687500  0.187500  Weight =    0.004
--------------------------------------------------------------------------------

  Frequencies (cm-1) [NB: Negative implies an imaginary mode]:

  400.61  454.14  588.11  809.09  834.21  926.48  950.77  960.94  962.71
 1032.66 1032.78 1066.53 1197.26 1230.90 1252.83 1304.59 1306.02 1327.30
 1330.67 1334.61 1387.53 1434.71 1442.03 1474.25


--------------------------------------------------------------------------------
  K point     43 =   0.062500  0.687500  0.312500  Weight =    0.004
--------------------------------------------------------------------------------

  Frequencies (cm-1) [NB: Negative implies an imaginary mode]:

  462.10  547.01  691.85  810.01  810.01  869.88  869.88  895.27  972.02
  972.02 1001.28 1047.98 1233.41 1265.38 1292.51 1292.51 1341.70 1341.70
 1352.79 1369.54 1369.54 1410.54 1426.44 1464.04


--------------------------------------------------------------------------------
  K point     44 =   0.062500  0.687500  0.437500  Weight =    0.004
--------------------------------------------------------------------------------

  Frequencies (cm-1) [NB: Negative implies an imaginary mode]:

  564.25  655.25  685.30  765.59  795.82  822.19  850.67  891.09  915.75
  962.42  989.96 1016.36 1253.84 1274.23 1305.32 1340.95 1341.72 1354.42
 1359.06 1374.96 1379.47 1403.69 1410.24 1442.78


--------------------------------------------------------------------------------
  K point     45 =   0.062500  0.687500  0.562500  Weight =    0.004
--------------------------------------------------------------------------------

  Frequencies (cm-1) [NB: Negative implies an imaginary mode]:

  564.25  655.25  685.30  765.59  795.82  822.19  850.67  891.09  915.75
  962.42  989.96 1016.36 1253.84 1274.23 1305.32 1340.95 1341.72 1354.42
 1359.06 1374.96 1379.47 1403.69 1410.24 1442.78


--------------------------------------------------------------------------------
  K point     46 =   0.062500  0.687500  0.687500  Weight =    0.004
--------------------------------------------------------------------------------

  Frequencies (cm-1) [NB: Negative implies an imaginary mode]:

  462.10  547.01  691.85  810.01  810.01  869.88  869.88  895.27  972.02
  972.02 1001.28 1047.98 1233.41 1265.38 1292.51 1292.51 1341.70 1341.70
 1352.79 1369.54 1369.54 1410.54 1426.44 1464.04


--------------------------------------------------------------------------------
  K point     47 =   0.062500  0.687500  0.812500  Weight =    0.004
--------------------------------------------------------------------------------

  Frequencies (cm-1) [NB: Negative implies an imaginary mode]:

  400.61  454.14  588.11  809.09  834.21  926.48  950.77  960.94  962.71
 1032.66 1032.78 1066.53 1197.26 1230.90 1252.83 1304.59 1306.02 1327.30
 1330.67 1334.61 1387.53 1434.71 1442.03 1474.25


--------------------------------------------------------------------------------
  K point     48 =   0.062500  0.687500  0.937500  Weight =    0.004
--------------------------------------------------------------------------------

  Frequencies (cm-1) [NB: Negative implies an imaginary mode]:

  390.22  399.95  505.00  811.09  815.38  955.69 1006.99 1006.99 1045.88
 1045.88 1066.40 1066.40 1156.53 1156.53 1273.62 1273.62 1306.82 1306.82
 1313.12 1317.64 1396.35 1449.80 1450.01 1476.12


--------------------------------------------------------------------------------
  K point     49 =   0.062500  0.812500  0.062500  Weight =    0.004
--------------------------------------------------------------------------------

  Frequencies (cm-1) [NB: Negative implies an imaginary mode]:

  239.13  253.44  339.79  926.59  933.49 1009.43 1009.43 1037.72 1037.72
 1074.05 1105.03 1105.03 1171.61 1171.61 1245.14 1245.14 1246.31 1253.99
 1293.29 1293.29 1345.26 1471.89 1472.60 1485.27


--------------------------------------------------------------------------------
  K point     50 =   0.062500  0.812500  0.187500  Weight =    0.004
--------------------------------------------------------------------------------

  Frequencies (cm-1) [NB: Negative implies an imaginary mode]:

  287.86  333.58  453.24  925.05  925.05  945.67  945.67  977.68 1049.51
 1052.70 1052.70 1082.09 1196.42 1228.77 1241.27 1241.27 1276.87 1276.87
 1317.53 1340.46 1340.46 1457.86 1462.20 1483.69


--------------------------------------------------------------------------------
  K point     51 =   0.062500  0.812500  0.312500  Weight =    0.004
--------------------------------------------------------------------------------

  Frequencies (cm-1) [NB: Negative implies an imaginary mode]:

  400.61  454.14  588.11  809.09  834.21  926.48  950.77  960.94  962.71
 1032.66 1032.78 1066.53 1197.26 1230.90 1252.83 1304.59 1306.02 1327.30
 1330.67 1334.61 1387.53 1434.71 1442.03 1474.25


--------------------------------------------------------------------------------
  K point     52 =   0.062500  0.812500  0.437500  Weight =    0.004
--------------------------------------------------------------------------------

  Frequencies (cm-1) [NB: Negative implies an imaginary mode]:

  537.58  584.15  677.16  712.60  722.71  848.71  928.29  934.32  983.68
 1007.53 1030.67 1046.53 1203.93 1217.34 1284.26 1308.49 1330.71 1339.04
 1359.93 1373.86 1402.54 1412.35 1426.37 1455.34


--------------------------------------------------------------------------------
  K point     53 =   0.062500  0.812500  0.562500  Weight =    0.004
--------------------------------------------------------------------------------

  Frequencies (cm-1) [NB: Negative implies an imaginary mode]:

  537.58  584.15  677.16  712.60  722.71  848.71  928.29  934.32  983.68
 1007.53 1030.67 1046.53 1203.93 1217.34 1284.26 1308.49 1330.71 1339.04
 1359.93 1373.86 1402.54 1412.35 1426.37 1455.34


--------------------------------------------------------------------------------
  K point     54 =   0.062500  0.812500  0.687500  Weight =    0.004
--------------------------------------------------------------------------------

  Frequencies (cm-1) [NB: Negative implies an imaginary mode]:

  400.61  454.14  588.11  809.09  834.21  926.48  950.77  960.94  962.71
 1032.66 1032.78 1066.53 1197.26 1230.90 1252.83 1304.59 1306.02 1327.30
 1330.67 1334.61 1387.53 1434.71 1442.03 1474.25


--------------------------------------------------------------------------------
  K point     55 =   0.062500  0.812500  0.812500  Weight =    0.004
--------------------------------------------------------------------------------

  Frequencies (cm-1) [NB: Negative implies an imaginary mode]:

  287.86  333.58  453.24  925.05  925.05  945.67  945.67  977.68 1049.51
 1052.70 1052.70 1082.09 1196.42 1228.77 1241.27 1241.27 1276.87 1276.87
 1317.53 1340.46 1340.46 1457.86 1462.20 1483.69


--------------------------------------------------------------------------------
  K point     56 =   0.062500  0.812500  0.937500  Weight =    0.004
--------------------------------------------------------------------------------

  Frequencies (cm-1) [NB: Negative implies an imaginary mode]:

  239.13  253.44  339.79  926.59  933.49 1009.43 1009.43 1037.72 1037.72
 1074.05 1105.03 1105.03 1171.61 1171.61 1245.14 1245.14 1246.31 1253.99
 1293.29 1293.29 1345.26 1471.89 1472.60 1485.27


--------------------------------------------------------------------------------
  K point     57 =   0.062500  0.937500  0.062500  Weight =    0.004
--------------------------------------------------------------------------------

  Frequencies (cm-1) [NB: Negative implies an imaginary mode]:

  122.12  122.12  188.98 1017.27 1017.27 1017.27 1027.44 1027.44 1027.44
 1146.57 1146.57 1146.57 1180.29 1180.29 1180.29 1214.16 1214.16 1214.16
 1280.69 1280.69 1280.69 1483.85 1483.85 1488.38


--------------------------------------------------------------------------------
  K point     58 =   0.062500  0.937500  0.187500  Weight =    0.004
--------------------------------------------------------------------------------

  Frequencies (cm-1) [NB: Negative implies an imaginary mode]:

  239.13  253.44  339.79  926.59  933.49 1009.43 1009.43 1037.72 1037.72
 1074.05 1105.03 1105.03 1171.61 1171.61 1245.14 1245.14 1246.31 1253.99
 1293.29 1293.29 1345.26 1471.89 1472.60 1485.27


--------------------------------------------------------------------------------
  K point     59 =   0.062500  0.937500  0.312500  Weight =    0.004
--------------------------------------------------------------------------------

  Frequencies (cm-1) [NB: Negative implies an imaginary mode]:

  390.22  399.95  505.00  811.09  815.38  955.69 1006.99 1006.99 1045.88
 1045.88 1066.40 1066.40 1156.53 1156.53 1273.62 1273.62 1306.82 1306.82
 1313.12 1317.64 1396.35 1449.80 1450.01 1476.12


--------------------------------------------------------------------------------
  K point     60 =   0.062500  0.937500  0.437500  Weight =    0.004
--------------------------------------------------------------------------------

  Frequencies (cm-1) [NB: Negative implies an imaginary mode]:

  540.57  544.52  666.79  682.55  683.35  818.47 1012.79 1012.79 1034.50
 1034.50 1053.80 1053.80 1146.79 1146.79 1289.72 1289.72 1314.38 1314.38
 1370.20 1372.80 1415.91 1416.91 1433.83 1459.65


--------------------------------------------------------------------------------
  K point     61 =   0.062500  0.937500  0.562500  Weight =    0.004
--------------------------------------------------------------------------------

  Frequencies (cm-1) [NB: Negative implies an imaginary mode]:

  540.57  544.52  666.79  682.55  683.35  818.47 1012.79 1012.79 1034.50
 1034.50 1053.80 1053.80 1146.79 1146.79 1289.72 1289.72 1314.38 1314.38
 1370.20 1372.80 1415.91 1416.91 1433.83 1459.65


--------------------------------------------------------------------------------
  K point     62 =   0.062500  0.937500  0.687500  Weight =    0.004
--------------------------------------------------------------------------------

  Frequencies (cm-1) [NB: Negative implies an imaginary mode]:

  390.22  399.95  505.00  811.09  815.38  955.69 1006.99 1006.99 1045.88
 1045.88 1066.40 1066.40 1156.53 1156.53 1273.62 1273.62 1306.82 1306.82
 1313.12 1317.64 1396.35 1449.80 1450.01 1476.12


--------------------------------------------------------------------------------
  K point     63 =   0.062500  0.937500  0.812500  Weight =    0.004
--------------------------------------------------------------------------------

  Frequencies (cm-1) [NB: Negative implies an imaginary mode]:

  239.13  253.44  339.79  926.59  933.49 1009.43 1009.43 1037.72 1037.72
 1074.05 1105.03 1105.03 1171.61 1171.61 1245.14 1245.14 1246.31 1253.99
 1293.29 1293.29 1345.26 1471.89 1472.60 1485.27


--------------------------------------------------------------------------------
  K point     64 =   0.062500  0.937500  0.937500  Weight =    0.004
--------------------------------------------------------------------------------

  Frequencies (cm-1) [NB: Negative implies an imaginary mode]:

  122.12  122.12  188.98 1017.27 1017.27 1017.27 1027.44 1027.44 1027.44
 1146.57 1146.57 1146.57 1180.29 1180.29 1180.29 1214.16 1214.16 1214.16
 1280.69 1280.69 1280.69 1483.85 1483.85 1488.38


--------------------------------------------------------------------------------
  K point     65 =   0.187500  0.062500  0.062500  Weight =    0.004
--------------------------------------------------------------------------------

  Frequencies (cm-1) [NB: Negative implies an imaginary mode]:

  239.13  253.44  339.79  926.59  933.49 1009.43 1009.43 1037.72 1037.72
 1074.05 1105.03 1105.03 1171.61 1171.61 1245.14 1245.14 1246.31 1253.99
 1293.29 1293.29 1345.26 1471.89 1472.60 1485.27


--------------------------------------------------------------------------------
  K point     66 =   0.187500  0.062500  0.187500  Weight =    0.004
--------------------------------------------------------------------------------

  Frequencies (cm-1) [NB: Negative implies an imaginary mode]:

  287.86  333.58  453.24  925.05  925.05  945.67  945.67  977.68 1049.51
 1052.70 1052.70 1082.09 1196.42 1228.77 1241.27 1241.27 1276.87 1276.87
 1317.53 1340.46 1340.46 1457.86 1462.20 1483.69


--------------------------------------------------------------------------------
  K point     67 =   0.187500  0.062500  0.312500  Weight =    0.004
--------------------------------------------------------------------------------

  Frequencies (cm-1) [NB: Negative implies an imaginary mode]:

  400.61  454.14  588.11  809.09  834.21  926.48  950.77  960.94  962.71
 1032.66 1032.78 1066.53 1197.26 1230.90 1252.83 1304.59 1306.02 1327.30
 1330.67 1334.61 1387.53 1434.71 1442.03 1474.25


--------------------------------------------------------------------------------
  K point     68 =   0.187500  0.062500  0.437500  Weight =    0.004
--------------------------------------------------------------------------------

  Frequencies (cm-1) [NB: Negative implies an imaginary mode]:

  537.58  584.15  677.16  712.60  722.71  848.71  928.29  934.32  983.68
 1007.53 1030.67 1046.53 1203.93 1217.34 1284.26 1308.49 1330.71 1339.04
 1359.93 1373.86 1402.54 1412.35 1426.37 1455.34


--------------------------------------------------------------------------------
  K point     69 =   0.187500  0.062500  0.562500  Weight =    0.004
--------------------------------------------------------------------------------

  Frequencies (cm-1) [NB: Negative implies an imaginary mode]:

  537.58  584.15  677.16  712.60  722.71  848.71  928.29  934.32  983.68
 1007.53 1030.67 1046.53 1203.93 1217.34 1284.26 1308.49 1330.71 1339.04
 1359.93 1373.86 1402.54 1412.35 1426.37 1455.34


--------------------------------------------------------------------------------
  K point     70 =   0.187500  0.062500  0.687500  Weight =    0.004
--------------------------------------------------------------------------------

  Frequencies (cm-1) [NB: Negative implies an imaginary mode]:

  400.61  454.14  588.11  809.09  834.21  926.48  950.77  960.94  962.71
 1032.66 1032.78 1066.53 1197.26 1230.90 1252.83 1304.59 1306.02 1327.30
 1330.67 1334.61 1387.53 1434.71 1442.03 1474.25


--------------------------------------------------------------------------------
  K point     71 =   0.187500  0.062500  0.812500  Weight =    0.004
--------------------------------------------------------------------------------

  Frequencies (cm-1) [NB: Negative implies an imaginary mode]:

  287.86  333.58  453.24  925.05  925.05  945.67  945.67  977.68 1049.51
 1052.70 1052.70 1082.09 1196.42 1228.77 1241.27 1241.27 1276.87 1276.87
 1317.53 1340.46 1340.46 1457.86 1462.20 1483.69


--------------------------------------------------------------------------------
  K point     72 =   0.187500  0.062500  0.937500  Weight =    0.004
--------------------------------------------------------------------------------

  Frequencies (cm-1) [NB: Negative implies an imaginary mode]:

  239.13  253.44  339.79  926.59  933.49 1009.43 1009.43 1037.72 1037.72
 1074.05 1105.03 1105.03 1171.61 1171.61 1245.14 1245.14 1246.31 1253.99
 1293.29 1293.29 1345.26 1471.89 1472.60 1485.27


--------------------------------------------------------------------------------
  K point     73 =   0.187500  0.187500  0.062500  Weight =    0.004
--------------------------------------------------------------------------------

  Frequencies (cm-1) [NB: Negative implies an imaginary mode]:

  287.86  333.58  453.24  925.05  925.05  945.67  945.67  977.68 1049.51
 1052.70 1052.70 1082.09 1196.42 1228.77 1241.27 1241.27 1276.87 1276.87
 1317.53 1340.46 1340.46 1457.86 1462.20 1483.69


--------------------------------------------------------------------------------
  K point     74 =   0.187500  0.187500  0.187500  Weight =    0.004
--------------------------------------------------------------------------------

  Frequencies (cm-1) [NB: Negative implies an imaginary mode]:

  356.55  356.55  547.39  907.75  907.75  907.75  952.93  952.93  952.93
 1047.02 1047.02 1047.02 1244.84 1244.84 1244.84 1283.60 1283.60 1283.60
 1341.86 1341.86 1341.86 1447.31 1447.31 1483.31


--------------------------------------------------------------------------------
  K point     75 =   0.187500  0.187500  0.312500  Weight =    0.004
--------------------------------------------------------------------------------

  Frequencies (cm-1) [NB: Negative implies an imaginary mode]:

  441.85  461.47  664.64  808.86  831.28  894.33  894.33  947.61  947.61
  978.28 1045.99 1045.99 1243.30 1243.30 1299.00 1299.00 1301.61 1332.21
 1342.05 1342.05 1381.46 1425.36 1426.21 1474.56


--------------------------------------------------------------------------------
  K point     76 =   0.187500  0.187500  0.437500  Weight =    0.004
--------------------------------------------------------------------------------

  Frequencies (cm-1) [NB: Negative implies an imaginary mode]:

  564.00  578.86  696.95  698.47  781.40  887.81  887.81  887.88  938.94
  938.94 1048.48 1048.48 1240.44 1240.44 1312.85 1312.85 1339.69 1339.69
 1352.71 1368.54 1394.58 1398.93 1422.59 1454.54


--------------------------------------------------------------------------------
  K point     77 =   0.187500  0.187500  0.562500  Weight =    0.004
--------------------------------------------------------------------------------

  Frequencies (cm-1) [NB: Negative implies an imaginary mode]:

  564.00  578.86  696.95  698.47  781.40  887.81  887.81  887.88  938.94
  938.94 1048.48 1048.48 1240.44 1240.44 1312.85 1312.85 1339.69 1339.69
 1352.71 1368.54 1394.58 1398.93 1422.59 1454.54


--------------------------------------------------------------------------------
  K point     78 =   0.187500  0.187500  0.687500  Weight =    0.004
--------------------------------------------------------------------------------

  Frequencies (cm-1) [NB: Negative implies an imaginary mode]:

  441.85  461.47  664.64  808.86  831.28  894.33  894.33  947.61  947.61
  978.28 1045.99 1045.99 1243.30 1243.30 1299.00 1299.00 1301.61 1332.21
 1342.05 1342.05 1381.46 1425.36 1426.21 1474.56


--------------------------------------------------------------------------------
  K point     79 =   0.187500  0.187500  0.812500  Weight =    0.004
--------------------------------------------------------------------------------

  Frequencies (cm-1) [NB: Negative implies an imaginary mode]:

  356.55  356.55  547.39  907.75  907.75  907.75  952.93  952.93  952.93
 1047.02 1047.02 1047.02 1244.84 1244.84 1244.84 1283.60 1283.60 1283.60
 1341.86 1341.86 1341.86 1447.31 1447.31 1483.31


--------------------------------------------------------------------------------
  K point     80 =   0.187500  0.187500  0.937500  Weight =    0.004
--------------------------------------------------------------------------------

  Frequencies (cm-1) [NB: Negative implies an imaginary mode]:

  287.86  333.58  453.24  925.05  925.05  945.67  945.67  977.68 1049.51
 1052.70 1052.70 1082.09 1196.42 1228.77 1241.27 1241.27 1276.87 1276.87
 1317.53 1340.46 1340.46 1457.86 1462.20 1483.69


--------------------------------------------------------------------------------
  K point     81 =   0.187500  0.312500  0.062500  Weight =    0.004
--------------------------------------------------------------------------------

  Frequencies (cm-1) [NB: Negative implies an imaginary mode]:

  400.61  454.14  588.11  809.09  834.21  926.48  950.77  960.94  962.71
 1032.66 1032.78 1066.53 1197.26 1230.90 1252.83 1304.59 1306.02 1327.30
 1330.67 1334.61 1387.53 1434.71 1442.03 1474.25


--------------------------------------------------------------------------------
  K point     82 =   0.187500  0.312500  0.187500  Weight =    0.004
--------------------------------------------------------------------------------

  Frequencies (cm-1) [NB: Negative implies an imaginary mode]:

  441.85  461.47  664.64  808.86  831.28  894.33  894.33  947.61  947.61
  978.28 1045.99 1045.99 1243.30 1243.30 1299.00 1299.00 1301.61 1332.21
 1342.05 1342.05 1381.46 1425.36 1426.21 1474.56


--------------------------------------------------------------------------------
  K point     83 =   0.187500  0.312500  0.312500  Weight =    0.004
--------------------------------------------------------------------------------

  Frequencies (cm-1) [NB: Negative implies an imaginary mode]:

  496.79  534.40  761.38  804.37  804.37  841.76  841.76  856.12  920.96
 1002.98 1002.98 1052.66 1257.28 1292.74 1292.74 1306.55 1340.07 1340.07
 1350.87 1369.49 1369.49 1401.95 1408.55 1466.48


--------------------------------------------------------------------------------
  K point     84 =   0.187500  0.312500  0.437500  Weight =    0.004
--------------------------------------------------------------------------------

  Frequencies (cm-1) [NB: Negative implies an imaginary mode]:

  586.09  631.38  695.51  735.26  807.54  825.08  856.12  863.10  890.85
  938.63 1027.25 1045.56 1268.79 1280.98 1326.55 1336.93 1343.93 1353.89
 1355.14 1362.26 1373.07 1385.52 1412.78 1446.25


--------------------------------------------------------------------------------
  K point     85 =   0.187500  0.312500  0.562500  Weight =    0.004
--------------------------------------------------------------------------------

  Frequencies (cm-1) [NB: Negative implies an imaginary mode]:

  586.09  631.38  695.51  735.26  807.54  825.08  856.12  863.10  890.85
  938.63 1027.25 1045.56 1268.79 1280.98 1326.55 1336.93 1343.93 1353.89
 1355.14 1362.26 1373.07 1385.52 1412.78 1446.25


--------------------------------------------------------------------------------
  K point     86 =   0.187500  0.312500  0.687500  Weight =    0.004
--------------------------------------------------------------------------------

  Frequencies (cm-1) [NB: Negative implies an imaginary mode]:

  496.79  534.40  761.38  804.37  804.37  841.76  841.76  856.12  920.96
 1002.98 1002.98 1052.66 1257.28 1292.74 1292.74 1306.55 1340.07 1340.07
 1350.87 1369.49 1369.49 1401.95 1408.55 1466.48


--------------------------------------------------------------------------------
  K point     87 =   0.187500  0.312500  0.812500  Weight =    0.004
--------------------------------------------------------------------------------

  Frequencies (cm-1) [NB: Negative implies an imaginary mode]:

  441.85  461.47  664.64  808.86  831.28  894.33  894.33  947.61  947.61
  978.28 1045.99 1045.99 1243.30 1243.30 1299.00 1299.00 1301.61 1332.21
 1342.05 1342.05 1381.46 1425.36 1426.21 1474.56


--------------------------------------------------------------------------------
  K point     88 =   0.187500  0.312500  0.937500  Weight =    0.004
--------------------------------------------------------------------------------

  Frequencies (cm-1) [NB: Negative implies an imaginary mode]:

  400.61  454.14  588.11  809.09  834.21  926.48  950.77  960.94  962.71
 1032.66 1032.78 1066.53 1197.26 1230.90 1252.83 1304.59 1306.02 1327.30
 1330.67 1334.61 1387.53 1434.71 1442.03 1474.25


--------------------------------------------------------------------------------
  K point     89 =   0.187500  0.437500  0.062500  Weight =    0.004
--------------------------------------------------------------------------------

  Frequencies (cm-1) [NB: Negative implies an imaginary mode]:

  537.58  584.15  677.16  712.60  722.71  848.71  928.29  934.32  983.68
 1007.53 1030.67 1046.53 1203.93 1217.34 1284.26 1308.49 1330.71 1339.04
 1359.93 1373.86 1402.54 1412.35 1426.37 1455.34


--------------------------------------------------------------------------------
  K point     90 =   0.187500  0.437500  0.187500  Weight =    0.004
--------------------------------------------------------------------------------

  Frequencies (cm-1) [NB: Negative implies an imaginary mode]:

  564.00  578.86  696.95  698.47  781.40  887.81  887.81  887.88  938.94
  938.94 1048.48 1048.48 1240.44 1240.44 1312.85 1312.85 1339.69 1339.69
 1352.71 1368.54 1394.58 1398.93 1422.59 1454.54


--------------------------------------------------------------------------------
  K point     91 =   0.187500  0.437500  0.312500  Weight =    0.004
--------------------------------------------------------------------------------

  Frequencies (cm-1) [NB: Negative implies an imaginary mode]:

  586.09  631.38  695.51  735.26  807.54  825.08  856.12  863.10  890.85
  938.63 1027.25 1045.56 1268.79 1280.98 1326.55 1336.93 1343.93 1353.89
 1355.14 1362.26 1373.07 1385.52 1412.78 1446.25


--------------------------------------------------------------------------------
  K point     92 =   0.187500  0.437500  0.437500  Weight =    0.004
--------------------------------------------------------------------------------

  Frequencies (cm-1) [NB: Negative implies an imaginary mode]:

  638.84  704.59  717.79  717.79  763.71  784.15  784.15  838.00  927.53
  986.28  986.28 1023.56 1293.42 1316.12 1316.12 1343.00 1346.28 1354.47
 1354.47 1369.86 1373.74 1395.71 1395.71 1426.87


--------------------------------------------------------------------------------
  K point     93 =   0.187500  0.437500  0.562500  Weight =    0.004
--------------------------------------------------------------------------------

  Frequencies (cm-1) [NB: Negative implies an imaginary mode]:

  638.84  704.59  717.79  717.79  763.71  784.15  784.15  838.00  927.53
  986.28  986.28 1023.56 1293.42 1316.12 1316.12 1343.00 1346.28 1354.47
 1354.47 1369.86 1373.74 1395.71 1395.71 1426.87


--------------------------------------------------------------------------------
  K point     94 =   0.187500  0.437500  0.687500  Weight =    0.004
--------------------------------------------------------------------------------

  Frequencies (cm-1) [NB: Negative implies an imaginary mode]:

  586.09  631.38  695.51  735.26  807.54  825.08  856.12  863.10  890.85
  938.63 1027.25 1045.56 1268.79 1280.98 1326.55 1336.93 1343.93 1353.89
 1355.14 1362.26 1373.07 1385.52 1412.78 1446.25


--------------------------------------------------------------------------------
  K point     95 =   0.187500  0.437500  0.812500  Weight =    0.004
--------------------------------------------------------------------------------

  Frequencies (cm-1) [NB: Negative implies an imaginary mode]:

  564.00  578.86  696.95  698.47  781.40  887.81  887.81  887.88  938.94
  938.94 1048.48 1048.48 1240.44 1240.44 1312.85 1312.85 1339.69 1339.69
 1352.71 1368.54 1394.58 1398.93 1422.59 1454.54


--------------------------------------------------------------------------------
  K point     96 =   0.187500  0.437500  0.937500  Weight =    0.004
--------------------------------------------------------------------------------

  Frequencies (cm-1) [NB: Negative implies an imaginary mode]:

  537.58  584.15  677.16  712.60  722.71  848.71  928.29  934.32  983.68
 1007.53 1030.67 1046.53 1203.93 1217.34 1284.26 1308.49 1330.71 1339.04
 1359.93 1373.86 1402.54 1412.35 1426.37 1455.34


--------------------------------------------------------------------------------
  K point     97 =   0.187500  0.562500  0.062500  Weight =    0.004
--------------------------------------------------------------------------------

  Frequencies (cm-1) [NB: Negative implies an imaginary mode]:

  537.58  584.15  677.16  712.60  722.71  848.71  928.29  934.32  983.68
 1007.53 1030.67 1046.53 1203.93 1217.34 1284.26 1308.49 1330.71 1339.04
 1359.93 1373.86 1402.54 1412.35 1426.37 1455.34


--------------------------------------------------------------------------------
  K point     98 =   0.187500  0.562500  0.187500  Weight =    0.004
--------------------------------------------------------------------------------

  Frequencies (cm-1) [NB: Negative implies an imaginary mode]:

  564.00  578.86  696.95  698.47  781.40  887.81  887.81  887.88  938.94
  938.94 1048.48 1048.48 1240.44 1240.44 1312.85 1312.85 1339.69 1339.69
 1352.71 1368.54 1394.58 1398.93 1422.59 1454.54


--------------------------------------------------------------------------------
  K point     99 =   0.187500  0.562500  0.312500  Weight =    0.004
--------------------------------------------------------------------------------

  Frequencies (cm-1) [NB: Negative implies an imaginary mode]:

  586.09  631.38  695.51  735.26  807.54  825.08  856.12  863.10  890.85
  938.63 1027.25 1045.56 1268.79 1280.98 1326.55 1336.93 1343.93 1353.89
 1355.14 1362.26 1373.07 1385.52 1412.78 1446.25


--------------------------------------------------------------------------------
  K point    100 =   0.187500  0.562500  0.437500  Weight =    0.004
--------------------------------------------------------------------------------

  Frequencies (cm-1) [NB: Negative implies an imaginary mode]:

  638.84  704.59  717.79  717.79  763.71  784.15  784.15  838.00  927.53
  986.28  986.28 1023.56 1293.42 1316.12 1316.12 1343.00 1346.28 1354.47
 1354.47 1369.86 1373.74 1395.71 1395.71 1426.87


--------------------------------------------------------------------------------
  K point    101 =   0.187500  0.562500  0.562500  Weight =    0.004
--------------------------------------------------------------------------------

  Frequencies (cm-1) [NB: Negative implies an imaginary mode]:

  638.84  704.59  717.79  717.79  763.71  784.15  784.15  838.00  927.53
  986.28  986.28 1023.56 1293.42 1316.12 1316.12 1343.00 1346.28 1354.47
 1354.47 1369.86 1373.74 1395.71 1395.71 1426.87


--------------------------------------------------------------------------------
  K point    102 =   0.187500  0.562500  0.687500  Weight =    0.004
--------------------------------------------------------------------------------

  Frequencies (cm-1) [NB: Negative implies an imaginary mode]:

  586.09  631.38  695.51  735.26  807.54  825.08  856.12  863.10  890.85
  938.63 1027.25 1045.56 1268.79 1280.98 1326.55 1336.93 1343.93 1353.89
 1355.14 1362.26 1373.07 1385.52 1412.78 1446.25


--------------------------------------------------------------------------------
  K point    103 =   0.187500  0.562500  0.812500  Weight =    0.004
--------------------------------------------------------------------------------

  Frequencies (cm-1) [NB: Negative implies an imaginary mode]:

  564.00  578.86  696.95  698.47  781.40  887.81  887.81  887.88  938.94
  938.94 1048.48 1048.48 1240.44 1240.44 1312.85 1312.85 1339.69 1339.69
 1352.71 1368.54 1394.58 1398.93 1422.59 1454.54


--------------------------------------------------------------------------------
  K point    104 =   0.187500  0.562500  0.937500  Weight =    0.004
--------------------------------------------------------------------------------

  Frequencies (cm-1) [NB: Negative implies an imaginary mode]:

  537.58  584.15  677.16  712.60  722.71  848.71  928.29  934.32  983.68
 1007.53 1030.67 1046.53 1203.93 1217.34 1284.26 1308.49 1330.71 1339.04
 1359.93 1373.86 1402.54 1412.35 1426.37 1455.34


--------------------------------------------------------------------------------
  K point    105 =   0.187500  0.687500  0.062500  Weight =    0.004
--------------------------------------------------------------------------------

  Frequencies (cm-1) [NB: Negative implies an imaginary mode]:

  400.61  454.14  588.11  809.09  834.21  926.48  950.77  960.94  962.71
 1032.66 1032.78 1066.53 1197.26 1230.90 1252.83 1304.59 1306.02 1327.30
 1330.67 1334.61 1387.53 1434.71 1442.03 1474.25


--------------------------------------------------------------------------------
  K point    106 =   0.187500  0.687500  0.187500  Weight =    0.004
--------------------------------------------------------------------------------

  Frequencies (cm-1) [NB: Negative implies an imaginary mode]:

  441.85  461.47  664.64  808.86  831.28  894.33  894.33  947.61  947.61
[...]
--------------------------------------------------------------------------------
  Zero point energy            =        1.616616 eV
  Entropy                      =        0.000002 eV/K
                               =        0.224085 J/(mol.K)
  Helmholtz free-energy        =      -57.242845 eV
                               =    -5523.059016 kJmol-1
  Free energy (equipartition)  =      -58.375458 eV
  - T*S       (equipartition)  =        0.318507 eV
  Uvib        (equipartition)  =        0.165453 eV
  Mean kinetic energy          =        0.808380 eV
  Heat capacity - const volume =        0.000007 eV/K
                               =        0.718746 J/(mol.K)
--------------------------------------------------------------------------------
  Phonon properties (per mole of unit cells): Temperature =     90.000 K
--------------------------------------------------------------------------------
  Zero point energy            =        1.616616 eV
  Entropy                      =        0.000003 eV/K
                               =        0.326705 J/(mol.K)
  Helmholtz free-energy        =      -57.242873 eV
                               =    -5523.061748 kJmol-1
  Free energy (equipartition)  =      -58.336887 eV
  - T*S       (equipartition)  =        0.336397 eV
  Uvib        (equipartition)  =        0.186134 eV
  Mean kinetic energy          =        0.808425 eV
  Heat capacity - const volume =        0.000011 eV/K
                               =        1.044951 J/(mol.K)
--------------------------------------------------------------------------------
  Phonon properties (per mole of unit cells): Temperature =    100.000 K
--------------------------------------------------------------------------------
  Zero point energy            =        1.616616 eV
  Entropy                      =        0.000005 eV/K
                               =        0.457782 J/(mol.K)
  Helmholtz free-energy        =      -57.242914 eV
                               =    -5523.065645 kJmol-1
  Free energy (equipartition)  =      -58.300618 eV
  - T*S       (equipartition)  =        0.351984 eV
  Uvib        (equipartition)  =        0.206816 eV
  Mean kinetic energy          =        0.808489 eV
  Heat capacity - const volume =        0.000015 eV/K
                               =        1.468197 J/(mol.K)
--------------------------------------------------------------------------------
  Phonon properties (per mole of unit cells): Temperature =    110.000 K
--------------------------------------------------------------------------------
  Zero point energy            =        1.616616 eV
  Entropy                      =        0.000006 eV/K
                               =        0.621932 J/(mol.K)
  Helmholtz free-energy        =      -57.242969 eV
                               =    -5523.071014 kJmol-1
  Free energy (equipartition)  =      -58.266421 eV
  - T*S       (equipartition)  =        0.365500 eV
  Uvib        (equipartition)  =        0.227498 eV
  Mean kinetic energy          =        0.808579 eV
  Heat capacity - const volume =        0.000021 eV/K
                               =        2.005203 J/(mol.K)
--------------------------------------------------------------------------------
  Phonon properties (per mole of unit cells): Temperature =    120.000 K
--------------------------------------------------------------------------------
  Zero point energy            =        1.616616 eV
  Entropy                      =        0.000009 eV/K
                               =        0.823996 J/(mol.K)
  Helmholtz free-energy        =      -57.243044 eV
                               =    -5523.078210 kJmol-1
  Free energy (equipartition)  =      -58.234106 eV
  - T*S       (equipartition)  =        0.377132 eV
  Uvib        (equipartition)  =        0.248179 eV
  Mean kinetic energy          =        0.808700 eV
  Heat capacity - const volume =        0.000028 eV/K
                               =        2.671821 J/(mol.K)
--------------------------------------------------------------------------------
  Phonon properties (per mole of unit cells): Temperature =    130.000 K
--------------------------------------------------------------------------------
  Zero point energy            =        1.616616 eV
  Entropy                      =        0.000011 eV/K
                               =        1.068846 J/(mol.K)
  Helmholtz free-energy        =      -57.243142 eV
                               =    -5523.087637 kJmol-1
  Free energy (equipartition)  =      -58.203518 eV
  - T*S       (equipartition)  =        0.387040 eV
  Uvib        (equipartition)  =        0.268861 eV
  Mean kinetic energy          =        0.808858 eV
  Heat capacity - const volume =        0.000036 eV/K
                               =        3.481878 J/(mol.K)
--------------------------------------------------------------------------------
  Phonon properties (per mole of unit cells): Temperature =    140.000 K
--------------------------------------------------------------------------------
  Zero point energy            =        1.616616 eV
  Entropy                      =        0.000014 eV/K
                               =        1.361197 J/(mol.K)
  Helmholtz free-energy        =      -57.243267 eV
                               =    -5523.099746 kJmol-1
  Free energy (equipartition)  =      -58.174521 eV
  - T*S       (equipartition)  =        0.395355 eV
  Uvib        (equipartition)  =        0.289542 eV
  Mean kinetic energy          =        0.809063 eV
  Heat capacity - const volume =        0.000046 eV/K
                               =        4.446394 J/(mol.K)
--------------------------------------------------------------------------------
  Phonon properties (per mole of unit cells): Temperature =    150.000 K
--------------------------------------------------------------------------------
  Zero point energy            =        1.616616 eV
  Entropy                      =        0.000018 eV/K
                               =        1.705441 J/(mol.K)
  Helmholtz free-energy        =      -57.243426 eV
                               =    -5523.115034 kJmol-1
  Free energy (equipartition)  =      -58.147003 eV
  - T*S       (equipartition)  =        0.402191 eV
  Uvib        (equipartition)  =        0.310224 eV
  Mean kinetic energy          =        0.809322 eV
  Heat capacity - const volume =        0.000058 eV/K
                               =        5.573201 J/(mol.K)
--------------------------------------------------------------------------------
  Phonon properties (per mole of unit cells): Temperature =    160.000 K
--------------------------------------------------------------------------------
  Zero point energy            =        1.616616 eV
  Entropy                      =        0.000022 eV/K
                               =        2.105520 J/(mol.K)
  Helmholtz free-energy        =      -57.243623 eV
                               =    -5523.134041 kJmol-1
  Free energy (equipartition)  =      -58.120865 eV
  - T*S       (equipartition)  =        0.407648 eV
  Uvib        (equipartition)  =        0.330906 eV
  Mean kinetic energy          =        0.809644 eV
  Heat capacity - const volume =        0.000071 eV/K
                               =        6.866891 J/(mol.K)
--------------------------------------------------------------------------------
  Phonon properties (per mole of unit cells): Temperature =    170.000 K
--------------------------------------------------------------------------------
  Zero point energy            =        1.616616 eV
  Entropy                      =        0.000027 eV/K
                               =        2.564844 J/(mol.K)
  Helmholtz free-energy        =      -57.243864 eV
                               =    -5523.157342 kJmol-1
  Free energy (equipartition)  =      -58.096020 eV
  - T*S       (equipartition)  =        0.411811 eV
  Uvib        (equipartition)  =        0.351587 eV
  Mean kinetic energy          =        0.810037 eV
  Heat capacity - const volume =        0.000086 eV/K
                               =        8.328968 J/(mol.K)
--------------------------------------------------------------------------------
  Phonon properties (per mole of unit cells): Temperature =    180.000 K
--------------------------------------------------------------------------------
  Zero point energy            =        1.616616 eV
  Entropy                      =        0.000032 eV/K
                               =        3.086243 J/(mol.K)
  Helmholtz free-energy        =      -57.244156 eV
                               =    -5523.185545 kJmol-1
  Free energy (equipartition)  =      -58.072393 eV
  - T*S       (equipartition)  =        0.414757 eV
  Uvib        (equipartition)  =        0.372269 eV
  Mean kinetic energy          =        0.810510 eV
  Heat capacity - const volume =        0.000103 eV/K
                               =        9.958118 J/(mol.K)
--------------------------------------------------------------------------------
  Phonon properties (per mole of unit cells): Temperature =    190.000 K
--------------------------------------------------------------------------------
  Zero point energy            =        1.616616 eV
  Entropy                      =        0.000038 eV/K
                               =        3.671945 J/(mol.K)
  Helmholtz free-energy        =      -57.244506 eV
                               =    -5523.219281 kJmol-1
  Free energy (equipartition)  =      -58.049915 eV
  - T*S       (equipartition)  =        0.416553 eV
  Uvib        (equipartition)  =        0.392951 eV
  Mean kinetic energy          =        0.811072 eV
  Heat capacity - const volume =        0.000122 eV/K
                               =       11.750532 J/(mol.K)
--------------------------------------------------------------------------------
  Phonon properties (per mole of unit cells): Temperature =    200.000 K
--------------------------------------------------------------------------------
  Zero point energy            =        1.616616 eV
  Entropy                      =        0.000045 eV/K
                               =        4.323588 J/(mol.K)
  Helmholtz free-energy        =      -57.244920 eV
                               =    -5523.259203 kJmol-1
  Free energy (equipartition)  =      -58.028526 eV
  - T*S       (equipartition)  =        0.417260 eV
  Uvib        (equipartition)  =        0.413632 eV
  Mean kinetic energy          =        0.811730 eV
  Heat capacity - const volume =        0.000142 eV/K
                               =       13.700241 J/(mol.K)
--------------------------------------------------------------------------------
  Phonon properties (per mole of unit cells): Temperature =    210.000 K
--------------------------------------------------------------------------------
  Zero point energy            =        1.616616 eV
  Entropy                      =        0.000052 eV/K
                               =        5.042229 J/(mol.K)
  Helmholtz free-energy        =      -57.245405 eV
                               =    -5523.305976 kJmol-1
  Free energy (equipartition)  =      -58.008172 eV
  - T*S       (equipartition)  =        0.416933 eV
  Uvib        (equipartition)  =        0.434314 eV
  Mean kinetic energy          =        0.812494 eV
  Heat capacity - const volume =        0.000164 eV/K
                               =       15.799452 J/(mol.K)
--------------------------------------------------------------------------------
  Phonon properties (per mole of unit cells): Temperature =    220.000 K
--------------------------------------------------------------------------------
  Zero point energy            =        1.616616 eV
  Entropy                      =        0.000060 eV/K
                               =        5.828381 J/(mol.K)
  Helmholtz free-energy        =      -57.245967 eV
                               =    -5523.360273 kJmol-1
  Free energy (equipartition)  =      -57.988802 eV
  - T*S       (equipartition)  =        0.415620 eV
  Uvib        (equipartition)  =        0.454995 eV
  Mean kinetic energy          =        0.813370 eV
  Heat capacity - const volume =        0.000187 eV/K
                               =       18.038873 J/(mol.K)
--------------------------------------------------------------------------------
  Phonon properties (per mole of unit cells): Temperature =    230.000 K
--------------------------------------------------------------------------------
  Zero point energy            =        1.616616 eV
  Entropy                      =        0.000069 eV/K
                               =        6.682047 J/(mol.K)
  Helmholtz free-energy        =      -57.246615 eV
                               =    -5523.422769 kJmol-1
  Free energy (equipartition)  =      -57.970374 eV
  - T*S       (equipartition)  =        0.413368 eV
  Uvib        (equipartition)  =        0.475677 eV
  Mean kinetic energy          =        0.814366 eV
  Heat capacity - const volume =        0.000212 eV/K
                               =       20.408030 J/(mol.K)
--------------------------------------------------------------------------------
  Phonon properties (per mole of unit cells): Temperature =    240.000 K
--------------------------------------------------------------------------------
  Zero point energy            =        1.616616 eV
  Entropy                      =        0.000079 eV/K
                               =        7.602765 J/(mol.K)
  Helmholtz free-energy        =      -57.247355 eV
                               =    -5523.494137 kJmol-1
  Free energy (equipartition)  =      -57.952844 eV
  - T*S       (equipartition)  =        0.410215 eV
  Uvib        (equipartition)  =        0.496359 eV
  Mean kinetic energy          =        0.815487 eV
  Heat capacity - const volume =        0.000237 eV/K
                               =       22.895565 J/(mol.K)
--------------------------------------------------------------------------------
  Phonon properties (per mole of unit cells): Temperature =    250.000 K
--------------------------------------------------------------------------------
  Zero point energy            =        1.616616 eV
  Entropy                      =        0.000089 eV/K
                               =        8.589651 J/(mol.K)
  Helmholtz free-energy        =      -57.248193 eV
                               =    -5523.575045 kJmol-1
  Free energy (equipartition)  =      -57.936177 eV
  - T*S       (equipartition)  =        0.406201 eV
  Uvib        (equipartition)  =        0.517040 eV
  Mean kinetic energy          =        0.816741 eV
  Heat capacity - const volume =        0.000264 eV/K
                               =       25.489515 J/(mol.K)
--------------------------------------------------------------------------------
  Phonon properties (per mole of unit cells): Temperature =    260.000 K
--------------------------------------------------------------------------------
  Zero point energy            =        1.616616 eV
  Entropy                      =        0.000100 eV/K
                               =        9.641450 J/(mol.K)
  Helmholtz free-energy        =      -57.249137 eV
                               =    -5523.666147 kJmol-1
  Free energy (equipartition)  =      -57.920337 eV
  - T*S       (equipartition)  =        0.401359 eV
  Uvib        (equipartition)  =        0.537722 eV
  Mean kinetic energy          =        0.818131 eV
  Heat capacity - const volume =        0.000292 eV/K
                               =       28.177572 J/(mol.K)
--------------------------------------------------------------------------------
  Phonon properties (per mole of unit cells): Temperature =    270.000 K
--------------------------------------------------------------------------------
  Zero point energy            =        1.616616 eV
  Entropy                      =        0.000111 eV/K
                               =       10.756580 J/(mol.K)
  Helmholtz free-energy        =      -57.250194 eV
                               =    -5523.768085 kJmol-1
  Free energy (equipartition)  =      -57.905293 eV
  - T*S       (equipartition)  =        0.395722 eV
  Uvib        (equipartition)  =        0.558403 eV
  Mean kinetic energy          =        0.819663 eV
  Heat capacity - const volume =        0.000321 eV/K
                               =       30.947310 J/(mol.K)
--------------------------------------------------------------------------------
  Phonon properties (per mole of unit cells): Temperature =    280.000 K
--------------------------------------------------------------------------------
  Zero point energy            =        1.616616 eV
  Entropy                      =        0.000124 eV/K
                               =       11.933182 J/(mol.K)
  Helmholtz free-energy        =      -57.251369 eV
                               =    -5523.881483 kJmol-1
  Free energy (equipartition)  =      -57.891015 eV
  - T*S       (equipartition)  =        0.389318 eV
  Uvib        (equipartition)  =        0.579085 eV
  Mean kinetic energy          =        0.821340 eV
  Heat capacity - const volume =        0.000350 eV/K
                               =       33.786395 J/(mol.K)
--------------------------------------------------------------------------------
  Phonon properties (per mole of unit cells): Temperature =    290.000 K
--------------------------------------------------------------------------------
  Zero point energy            =        1.616616 eV
  Entropy                      =        0.000136 eV/K
                               =       13.169162 J/(mol.K)
  Helmholtz free-energy        =      -57.252670 eV
                               =    -5524.006947 kJmol-1
  Free energy (equipartition)  =      -57.877476 eV
  - T*S       (equipartition)  =        0.382176 eV
  Uvib        (equipartition)  =        0.599767 eV
  Mean kinetic energy          =        0.823165 eV
  Heat capacity - const volume =        0.000380 eV/K
                               =       36.682754 J/(mol.K)
--------------------------------------------------------------------------------
  Phonon properties (per mole of unit cells): Temperature =    300.000 K
--------------------------------------------------------------------------------
  Zero point energy            =        1.616616 eV
  Entropy                      =        0.000150 eV/K
                               =       14.462238 J/(mol.K)
  Helmholtz free-energy        =      -57.254101 eV
                               =    -5524.145057 kJmol-1
  Free energy (equipartition)  =      -57.864650 eV
  - T*S       (equipartition)  =        0.374320 eV
  Uvib        (equipartition)  =        0.620448 eV
  Mean kinetic energy          =        0.825142 eV
  Heat capacity - const volume =        0.000411 eV/K
                               =       39.624722 J/(mol.K)
--------------------------------------------------------------------------------

  Time to end of properties =      13.1959 seconds


  Peak dynamic memory used =       1.93 MB 


  Timing analysis for GULP :

--------------------------------------------------------------------------------
  Task / Subroutine                                          Time (Seconds)
--------------------------------------------------------------------------------
  Calculation of real space energy and derivatives                0.0037
  Calculation of Brenner energy and derivatives                  12.9115
  Calculation of phonons                                         13.1130
  Disk read/write operations to scratch files                     0.0416
--------------------------------------------------------------------------------
  Total CPU time                                                 13.1961
--------------------------------------------------------------------------------


  Job Finished at 13:02.51 31st July       2020                               

