********************************************************************************
*                       GENERAL UTILITY LATTICE PROGRAM                        *
*                                 Julian Gale                                  *
*                       Curtin Institute for Computation                       *
*                    School of Molecular and Life Sciences                     *
*                    Curtin University, Western Australia                      *
********************************************************************************
* Version = 5.2.0 * Last modified =  17th December 2019                        *
********************************************************************************
*  optimise     - perform optimisation run                                     *
*  conv         - constant volume calculation                                  *
*  isotropic    - only isotropic cell expansion to be allowed                  *
*  lbfgs        - use limited memory BFGS update                               *
********************************************************************************
* ASE calculation                                                              *
********************************************************************************


  Job Started  at 16:20.08 12th August     2020                               

  Number of CPUs =     1


  Total number of configurations input =      1

********************************************************************************
*  Input for Configuration =   1                                               *
********************************************************************************

  Formula = C64                                                         

  Number of irreducible atoms/shells =      64


  Total number atoms/shells =      64

  Dimensionality = 3               :  Bulk   



  Cartesian lattice vectors (Angstroms) :

        7.526672    0.000000    0.000000
        0.000000    7.526672    0.000000
        0.000000    0.000000    7.526672

  Cell parameters (Angstroms/Degrees):

  a =       7.5267    alpha =  90.0000
  b =       7.5267    beta  =  90.0000
  c =       7.5267    gamma =  90.0000

  Initial cell volume =         426.391925 Angs**3

  Temperature of configuration =   0.00     K 

  Pressure of configuration =         0.000 GPa 

  Fractional coordinates of asymmetric unit :

--------------------------------------------------------------------------------
   No.  Atomic       x           y          z         Charge      Occupancy
        Label      (Frac)      (Frac)     (Frac)        (e)         (Frac)  
--------------------------------------------------------------------------------
      1 C     c    0.082860    0.546420    0.420470     0.00000    1.000000    
      2 C     c    0.300470 *  0.098480 *  0.158050 *   0.00000    1.000000    
      3 C     c    0.135430 *  0.397320 *  0.321400 *   0.00000    1.000000    
      4 C     c    0.905490 *  0.925920 *  0.500530 *   0.00000    1.000000    
      5 C     c    0.496470 *  0.888330 *  0.033250 *   0.00000    1.000000    
      6 C     c    0.816780 *  0.441270 *  0.290230 *   0.00000    1.000000    
      7 C     c    0.945770 *  0.607820 *  0.761780 *   0.00000    1.000000    
      8 C     c    0.840320 *  0.519590 *  0.629820 *   0.00000    1.000000    
      9 C     c    0.152890 *  0.348160 *  0.688790 *   0.00000    1.000000    
     10 C     c    0.417360 *  0.733360 *  0.168120 *   0.00000    1.000000    
     11 C     c    0.912950 *  0.222370 *  0.789680 *   0.00000    1.000000    
     12 C     c    0.594660 *  0.873970 *  0.593910 *   0.00000    1.000000    
     13 C     c    0.450710 *  0.212820 *  0.666970 *   0.00000    1.000000    
     14 C     c    0.222920 *  0.959920 *  0.855440 *   0.00000    1.000000    
     15 C     c    0.544790 *  0.575680 *  0.447490 *   0.00000    1.000000    
     16 C     c    0.011880 *  0.923390 *  0.168010 *   0.00000    1.000000    
     17 C     c    0.170450 *  0.793090 *  0.921890 *   0.00000    1.000000    
     18 C     c    0.324040 *  0.692350 *  0.651930 *   0.00000    1.000000    
     19 C     c    0.762670 *  0.347470 *  0.713160 *   0.00000    1.000000    
     20 C     c    0.064920 *  0.226020 *  0.316700 *   0.00000    1.000000    
     21 C     c    0.939020 *  0.137230 *  0.452960 *   0.00000    1.000000    
     22 C     c    0.882990 *  0.573160 *  0.439880 *   0.00000    1.000000    
     23 C     c    0.483380 *  0.799280 *  0.721410 *   0.00000    1.000000    
     24 C     c    0.800220 *  0.235140 *  0.302270 *   0.00000    1.000000    
     25 C     c    0.720270 *  0.151940 *  0.111960 *   0.00000    1.000000    
     26 C     c    0.529470 *  0.570940 *  0.123160 *   0.00000    1.000000    
     27 C     c    0.623950 *  0.264260 *  0.582370 *   0.00000    1.000000    
     28 C     c    0.661500 *  0.958000 *  0.159510 *   0.00000    1.000000    
     29 C     c    0.510700 *  0.875200 *  0.296820 *   0.00000    1.000000    
     30 C     c    0.368170 *  0.034740 *  0.972170 *   0.00000    1.000000    
     31 C     c    0.838010 *  0.084970 *  0.940300 *   0.00000    1.000000    
     32 C     c    0.887020 *  0.741300 *  0.878490 *   0.00000    1.000000    
     33 C     c    0.329920 *  0.369220 *  0.625000 *   0.00000    1.000000    
     34 C     c    0.234910 *  0.665930 *  0.237200 *   0.00000    1.000000    
     35 C     c    0.097820 *  0.482080 *  0.828230 *   0.00000    1.000000    
     36 C     c    0.357300 *  0.059430 *  0.561620 *   0.00000    1.000000    
     37 C     c    0.205560 *  0.709380 *  0.458790 *   0.00000    1.000000    
     38 C     c    0.577830 *  0.283650 *  0.000200 *   0.00000    1.000000    
     39 C     c    0.096250 *  0.111340 *  0.154850 *   0.00000    1.000000    
     40 C     c    0.783300 *  0.916310 *  0.845700 *   0.00000    1.000000    
     41 C     c    0.406360 *  0.526900 *  0.561540 *   0.00000    1.000000    
     42 C     c    0.094690 *  0.865200 *  0.548260 *   0.00000    1.000000    
     43 C     c    0.072230 *  0.412820 *  0.017680 *   0.00000    1.000000    
     44 C     c    0.238240 *  0.455410 *  0.151960 *   0.00000    1.000000    
     45 C     c    0.203740 *  0.654420 *  0.807420 *   0.00000    1.000000    
     46 C     c    0.918830 *  0.504530 *  0.126220 *   0.00000    1.000000    
     47 C     c    0.828050 *  0.833420 *  0.193820 *   0.00000    1.000000    
     48 C     c    0.017560 *  0.212950 *  0.992570 *   0.00000    1.000000    
     49 C     c    0.812710 *  0.769570 *  0.389370 *   0.00000    1.000000    
     50 C     c    0.835940 *  0.673740 *  0.062610 *   0.00000    1.000000    
     51 C     c    0.185060 *  0.009430 *  0.659170 *   0.00000    1.000000    
     52 C     c    0.457630 *  0.216810 *  0.274090 *   0.00000    1.000000    
     53 C     c    0.431410 *  0.378370 *  0.134190 *   0.00000    1.000000    
     54 C     c    0.387750 *  0.028060 *  0.356610 *   0.00000    1.000000    
     55 C     c    0.620120 *  0.243470 *  0.401380 *   0.00000    1.000000    
     56 C     c    0.467290 *  0.174440 *  0.869580 *   0.00000    1.000000    
     57 C     c    0.671060 *  0.425450 *  0.885090 *   0.00000    1.000000    
     58 C     c    0.760010 *  0.942560 *  0.648250 *   0.00000    1.000000    
     59 C     c    0.130720 *  0.786950 *  0.105540 *   0.00000    1.000000    
     60 C     c    0.614630 *  0.488110 *  0.292770 *   0.00000    1.000000    
     61 C     c    0.609350 *  0.770250 *  0.432430 *   0.00000    1.000000    
     62 C     c    0.047380 *  0.170810 *  0.640760 *   0.00000    1.000000    
     63 C     c    0.654620 *  0.612400 *  0.969500 *   0.00000    1.000000    
     64 C     c    0.597000 *  0.795710 *  0.888070 *   0.00000    1.000000    
--------------------------------------------------------------------------------


  Constraints : 

--------------------------------------------------------------------------------
  Constraint no.      Unconstrained     Constrained    Coefficient    Offset
                         Variable         Variable
--------------------------------------------------------------------------------
           1              Strain 1        Strain 2       1.00000      0.0000
           2              Strain 1        Strain 3       1.00000      0.0000
--------------------------------------------------------------------------------


********************************************************************************
*  General input information                                                   *
********************************************************************************

  Species output for all configurations : 

--------------------------------------------------------------------------------
  Species    Type    Atomic    Atomic    Charge       Radii (Angs)     Library
                     Number     Mass       (e)     Cova   Ionic  VDW   Symbol
--------------------------------------------------------------------------------
    C        Core        6      12.01   0.000000   0.770  0.000  1.530          
--------------------------------------------------------------------------------


  Lattice summation method               =    Ewald          (3-D)
                                         =    Parry          (2-D)
                                         =    Saunders et al (1-D)
  Accuracy factor for lattice sums       =   12.000


  Analytic derivatives to be used

  Time limit = Infinity

  Maximum range for interatomic potentials =    100000.000000 Angstroms

  Brenner et al 2002 potential to be used with explicit splines for P


********************************************************************************
*  Output for configuration   1                                                *
********************************************************************************


  Components of energy : 

--------------------------------------------------------------------------------
  Interatomic potentials     =           0.00000000 eV    
  Brenner potentials         =        -425.26425326 eV    
  Monopole - monopole (real) =           0.00000000 eV    
  Monopole - monopole (recip)=           0.00000000 eV    
  Monopole - monopole (total)=           0.00000000 eV    
--------------------------------------------------------------------------------
  Total lattice energy       =        -425.26425326 eV    
--------------------------------------------------------------------------------
  Total lattice energy       =          -41031.4997 kJ/(mole unit cells)
--------------------------------------------------------------------------------


  Number of variables =      189

  Maximum number of calculations  =          2000
  Maximum Hessian update interval =            10
  Maximum step size               =   1.000000000
  Maximum parameter tolerance     =   0.000010000
  Maximum function  tolerance     =   0.000010000
  Maximum gradient  tolerance     =   0.001000000
  Maximum gradient  component     =   0.010000000

  Maximum LM gradient tolerance   =   0.900000000
  Symmetry not applied to optimisation

  Limited Memory BFGS to be used of order   10

  BFGS hessian update to be used

  Lower half triangular hessian to be used

  Start of bulk optimisation :

  Cycle:      0 Energy:      -425.264253  Gnorm:      0.096384  CPU:    0.026
  Cycle:      1 Energy:      -425.267069  Gnorm:      0.083772  CPU:    0.031
  Cycle:      2 Energy:      -425.277696  Gnorm:      0.024523  CPU:    0.035
  Cycle:      3 Energy:      -425.278675  Gnorm:      0.016170  CPU:    0.039
  Cycle:      4 Energy:      -425.279999  Gnorm:      0.013605  CPU:    0.042
  Cycle:      5 Energy:      -425.280993  Gnorm:      0.013082  CPU:    0.053
  Cycle:      6 Energy:      -425.281754  Gnorm:      0.019208  CPU:    0.067
  Cycle:      7 Energy:      -425.282295  Gnorm:      0.007139  CPU:    0.073
  Cycle:      8 Energy:      -425.282515  Gnorm:      0.006443  CPU:    0.077
  Cycle:      9 Energy:      -425.282779  Gnorm:      0.006304  CPU:    0.082
  Cycle:     10 Energy:      -425.282980  Gnorm:      0.012514  CPU:    0.085
  Cycle:     11 Energy:      -425.283167  Gnorm:      0.004178  CPU:    0.089
  Cycle:     12 Energy:      -425.283221  Gnorm:      0.002985  CPU:    0.111
  Cycle:     13 Energy:      -425.283298  Gnorm:      0.002503  CPU:    0.118
  Cycle:     14 Energy:      -425.283356  Gnorm:      0.003564  CPU:    0.122
  Cycle:     15 Energy:      -425.283364  Gnorm:      0.005418  CPU:    0.127
  Cycle:     16 Energy:      -425.283402  Gnorm:      0.001447  CPU:    0.130
  Cycle:     17 Energy:      -425.283410  Gnorm:      0.001255  CPU:    0.133
  Cycle:     18 Energy:      -425.283425  Gnorm:      0.001516  CPU:    0.151
  Cycle:     19 Energy:      -425.283430  Gnorm:      0.004136  CPU:    0.159
  Cycle:     20 Energy:      -425.283448  Gnorm:      0.001444  CPU:    0.165
  Cycle:     21 Energy:      -425.283455  Gnorm:      0.001031  CPU:    0.169
  Cycle:     22 Energy:      -425.283464  Gnorm:      0.001263  CPU:    0.173
  Cycle:     23 Energy:      -425.283477  Gnorm:      0.001316  CPU:    0.176
  Cycle:     24 Energy:      -425.283483  Gnorm:      0.002457  CPU:    0.193
  Cycle:     25 Energy:      -425.283497  Gnorm:      0.001307  CPU:    0.204
  Cycle:     26 Energy:      -425.283506  Gnorm:      0.001195  CPU:    0.209
  Cycle:     27 Energy:      -425.283515  Gnorm:      0.001794  CPU:    0.213
  Cycle:     28 Energy:      -425.283524  Gnorm:      0.001304  CPU:    0.217
  Cycle:     29 Energy:      -425.283535  Gnorm:      0.001319  CPU:    0.220
  Cycle:     30 Energy:      -425.283548  Gnorm:      0.001719  CPU:    0.223
  Cycle:     31 Energy:      -425.283560  Gnorm:      0.002735  CPU:    0.243
  Cycle:     32 Energy:      -425.283575  Gnorm:      0.001368  CPU:    0.250
  Cycle:     33 Energy:      -425.283587  Gnorm:      0.001543  CPU:    0.256
  Cycle:     34 Energy:      -425.283601  Gnorm:      0.001823  CPU:    0.260
  Cycle:     35 Energy:      -425.283631  Gnorm:      0.002058  CPU:    0.272
  Cycle:     36 Energy:      -425.283641  Gnorm:      0.002913  CPU:    0.302
  Cycle:     37 Energy:      -425.283663  Gnorm:      0.001621  CPU:    0.310
  Cycle:     38 Energy:      -425.283680  Gnorm:      0.001471  CPU:    0.315
  Cycle:     39 Energy:      -425.283699  Gnorm:      0.002285  CPU:    0.319
  Cycle:     40 Energy:      -425.283718  Gnorm:      0.002756  CPU:    0.323
  Cycle:     41 Energy:      -425.283738  Gnorm:      0.001797  CPU:    0.326
  Cycle:     42 Energy:      -425.283758  Gnorm:      0.001644  CPU:    0.331
  Cycle:     43 Energy:      -425.283773  Gnorm:      0.001655  CPU:    0.350
  Cycle:     44 Energy:      -425.283792  Gnorm:      0.001885  CPU:    0.357
  Cycle:     45 Energy:      -425.283799  Gnorm:      0.002989  CPU:    0.363
  Cycle:     46 Energy:      -425.283812  Gnorm:      0.001068  CPU:    0.377
  Cycle:     47 Energy:      -425.283817  Gnorm:      0.000795  CPU:    0.389
  Cycle:     48 Energy:      -425.283824  Gnorm:      0.000894  CPU:    0.395
  Cycle:     49 Energy:      -425.283832  Gnorm:      0.001069  CPU:    0.400
  Cycle:     50 Energy:      -425.283835  Gnorm:      0.001202  CPU:    0.405
  Cycle:     51 Energy:      -425.283839  Gnorm:      0.000609  CPU:    0.424
  Cycle:     52 Energy:      -425.283841  Gnorm:      0.000539  CPU:    0.431
  Cycle:     53 Energy:      -425.283843  Gnorm:      0.001381  CPU:    0.447
  Cycle:     54 Energy:      -425.283846  Gnorm:      0.000673  CPU:    0.458
  Cycle:     55 Energy:      -425.283848  Gnorm:      0.000582  CPU:    0.464
  Cycle:     56 Energy:      -425.283850  Gnorm:      0.000678  CPU:    0.468
  Cycle:     57 Energy:      -425.283853  Gnorm:      0.000751  CPU:    0.472
  Cycle:     58 Energy:      -425.283855  Gnorm:      0.001391  CPU:    0.477
  Cycle:     59 Energy:      -425.283859  Gnorm:      0.000860  CPU:    0.485
  Cycle:     60 Energy:      -425.283863  Gnorm:      0.000659  CPU:    0.501
  Cycle:     61 Energy:      -425.283867  Gnorm:      0.000822  CPU:    0.507
  Cycle:     62 Energy:      -425.283870  Gnorm:      0.001497  CPU:    0.512
  Cycle:     63 Energy:      -425.283874  Gnorm:      0.001115  CPU:    0.516
  Cycle:     64 Energy:      -425.283877  Gnorm:      0.000663  CPU:    0.529
  Cycle:     65 Energy:      -425.283880  Gnorm:      0.000753  CPU:    0.543
  Cycle:     66 Energy:      -425.283881  Gnorm:      0.000694  CPU:    0.548
  Cycle:     67 Energy:      -425.283884  Gnorm:      0.000615  CPU:    0.553
  Cycle:     68 Energy:      -425.283886  Gnorm:      0.000813  CPU:    0.557
  Cycle:     69 Energy:      -425.283888  Gnorm:      0.000730  CPU:    0.561
  Cycle:     70 Energy:      -425.283890  Gnorm:      0.000545  CPU:    0.581
  Cycle:     71 Energy:      -425.283892  Gnorm:      0.000566  CPU:    0.589
  Cycle:     72 Energy:      -425.283895  Gnorm:      0.000875  CPU:    0.609
  Cycle:     73 Energy:      -425.283897  Gnorm:      0.000596  CPU:    0.617
  Cycle:     74 Energy:      -425.283898  Gnorm:      0.000499  CPU:    0.622
  Cycle:     75 Energy:      -425.283900  Gnorm:      0.000592  CPU:    0.626
  Cycle:     76 Energy:      -425.283902  Gnorm:      0.000865  CPU:    0.629
  Cycle:     77 Energy:      -425.283904  Gnorm:      0.000445  CPU:    0.632
  Cycle:     78 Energy:      -425.283905  Gnorm:      0.000377  CPU:    0.653
  Cycle:     79 Energy:      -425.283907  Gnorm:      0.000448  CPU:    0.662
  Cycle:     80 Energy:      -425.283907  Gnorm:      0.000941  CPU:    0.666
  Cycle:     81 Energy:      -425.283909  Gnorm:      0.000260  CPU:    0.671


  **** Optimisation achieved ****


  Final energy =    -425.28390883 eV
  Final Gnorm  =       0.00020734

  Components of energy : 

--------------------------------------------------------------------------------
  Interatomic potentials     =           0.00000000 eV    
  Brenner potentials         =        -425.28390883 eV    
  Monopole - monopole (real) =           0.00000000 eV    
  Monopole - monopole (recip)=           0.00000000 eV    
  Monopole - monopole (total)=           0.00000000 eV    
--------------------------------------------------------------------------------
  Total lattice energy       =        -425.28390883 eV    
--------------------------------------------------------------------------------
  Total lattice energy       =          -41033.3961 kJ/(mole unit cells)
--------------------------------------------------------------------------------

  Final fractional coordinates of atoms :

--------------------------------------------------------------------------------
   No.  Atomic        x           y          z          Radius
        Label       (Frac)      (Frac)     (Frac)       (Angs) 
--------------------------------------------------------------------------------
     1  C     c     0.082860    0.546420    0.420470    0.000000
     2  C     c     0.301421    0.098061    0.159365    0.000000
     3  C     c     0.134779    0.397383    0.321497    0.000000
     4  C     c     0.906250    0.925844    0.501876    0.000000
     5  C     c     0.497544    0.887794    0.034750    0.000000
     6  C     c     0.816630    0.440880    0.291824    0.000000
     7  C     c     0.946186    0.606960    0.763361    0.000000
     8  C     c     0.841344    0.518809    0.631202    0.000000
     9  C     c     0.153959    0.347879    0.690632    0.000000
    10  C     c     0.418106    0.733101    0.169430    0.000000
    11  C     c     0.913567    0.221652    0.791021    0.000000
    12  C     c     0.595976    0.871974    0.595495    0.000000
    13  C     c     0.451323    0.212765    0.668189    0.000000
    14  C     c     0.224521    0.959275    0.856374    0.000000
    15  C     c     0.544872    0.575568    0.448423    0.000000
    16  C     c     0.013077    0.922613    0.168810    0.000000
    17  C     c     0.171780    0.792813    0.922792    0.000000
    18  C     c     0.323906    0.691861    0.652327    0.000000
    19  C     c     0.763272    0.346971    0.714536    0.000000
    20  C     c     0.064795    0.226106    0.316939    0.000000
    21  C     c     0.939918    0.137286    0.453854    0.000000
    22  C     c     0.883405    0.572729    0.441306    0.000000
    23  C     c     0.484327    0.797637    0.722594    0.000000
    24  C     c     0.800749    0.234841    0.304198    0.000000
    25  C     c     0.721186    0.151233    0.113286    0.000000
    26  C     c     0.530084    0.570812    0.124613    0.000000
    27  C     c     0.624373    0.263966    0.583581    0.000000
    28  C     c     0.662666    0.957295    0.160630    0.000000
    29  C     c     0.511668    0.874952    0.297634    0.000000
    30  C     c     0.369313    0.034180    0.973449    0.000000
    31  C     c     0.838804    0.084198    0.941289    0.000000
    32  C     c     0.886709    0.739893    0.879897    0.000000
    33  C     c     0.330745    0.369159    0.626823    0.000000
    34  C     c     0.235697    0.665458    0.238613    0.000000
    35  C     c     0.098367    0.481787    0.829716    0.000000
    36  C     c     0.357925    0.059712    0.562412    0.000000
    37  C     c     0.205828    0.708863    0.459536    0.000000
    38  C     c     0.578420    0.283235    0.001378    0.000000
    39  C     c     0.097054    0.110890    0.155826    0.000000
    40  C     c     0.783984    0.915290    0.847028    0.000000
    41  C     c     0.406845    0.526536    0.562686    0.000000
    42  C     c     0.095594    0.865239    0.549072    0.000000
    43  C     c     0.072503    0.412447    0.019191    0.000000
    44  C     c     0.239218    0.455562    0.153315    0.000000
    45  C     c     0.203403    0.654468    0.807888    0.000000
    46  C     c     0.918991    0.503850    0.127907    0.000000
    47  C     c     0.829219    0.832744    0.194954    0.000000
    48  C     c     0.017655    0.212442    0.993526    0.000000
    49  C     c     0.813258    0.769273    0.390578    0.000000
    50  C     c     0.836408    0.672887    0.064123    0.000000
    51  C     c     0.186053    0.009209    0.660109    0.000000
    52  C     c     0.458257    0.216428    0.274753    0.000000
    53  C     c     0.432476    0.378364    0.135765    0.000000
    54  C     c     0.388891    0.027874    0.357266    0.000000
    55  C     c     0.620582    0.243045    0.402833    0.000000
    56  C     c     0.468079    0.174000    0.870914    0.000000
    57  C     c     0.671669    0.424967    0.886510    0.000000
    58  C     c     0.760929    0.940569    0.649670    0.000000
    59  C     c     0.132255    0.786743    0.106345    0.000000
    60  C     c     0.614911    0.488229    0.294007    0.000000
    61  C     c     0.609821    0.769955    0.433376    0.000000
    62  C     c     0.048243    0.170744    0.642248    0.000000
    63  C     c     0.655156    0.611749    0.971148    0.000000
    64  C     c     0.597607    0.794873    0.889540    0.000000
--------------------------------------------------------------------------------

  Final internal derivatives :

--------------------------------------------------------------------------------
   No.  Atomic          a             b             c           Radius
        Label          (eV)          (eV)          (eV)        (eV/Angs)
--------------------------------------------------------------------------------
      1 C     c       0.000000      0.000000      0.000000      0.000000
      2 C     c       0.004879      0.002434      0.007049      0.000000
      3 C     c       0.001863      0.001055     -0.002318      0.000000
      4 C     c       0.002518     -0.006416      0.003328      0.000000
      5 C     c      -0.000368     -0.001978     -0.003412      0.000000
      6 C     c      -0.003377     -0.001291     -0.000161      0.000000
      7 C     c      -0.000513      0.000912      0.001367      0.000000
      8 C     c       0.004645     -0.002989      0.002506      0.000000
      9 C     c      -0.000486      0.000008      0.001241      0.000000
     10 C     c      -0.002108      0.002591     -0.000825      0.000000
     11 C     c       0.002083      0.003843     -0.000363      0.000000
     12 C     c       0.003312     -0.002751     -0.000035      0.000000
     13 C     c      -0.002256      0.002136      0.003098      0.000000
     14 C     c      -0.003917     -0.001063      0.002620      0.000000
     15 C     c      -0.000453     -0.002466      0.002811      0.000000
     16 C     c      -0.000736      0.001111      0.000834      0.000000
     17 C     c      -0.004280     -0.002593      0.004721      0.000000
     18 C     c       0.001269      0.006135      0.000924      0.000000
     19 C     c       0.003725     -0.003353      0.000176      0.000000
     20 C     c       0.001220      0.000183      0.001855      0.000000
     21 C     c       0.001900      0.002531      0.000011      0.000000
     22 C     c       0.001155     -0.004776      0.001313      0.000000
     23 C     c       0.002744      0.001990      0.001561      0.000000
     24 C     c       0.005269     -0.001973      0.002322      0.000000
     25 C     c       0.000434     -0.000862     -0.003804      0.000000
     26 C     c       0.000546     -0.001382     -0.001945      0.000000
     27 C     c      -0.001998     -0.004148     -0.000216      0.000000
     28 C     c       0.001284      0.004417     -0.001976      0.000000
     29 C     c       0.002589      0.001274     -0.002700      0.000000
     30 C     c       0.001306     -0.000722     -0.002505      0.000000
     31 C     c       0.002467      0.003507     -0.002652      0.000000
     32 C     c      -0.003748      0.000366     -0.002844      0.000000
     33 C     c      -0.002210      0.000508      0.001127      0.000000
     34 C     c      -0.001350     -0.003158      0.003804      0.000000
     35 C     c      -0.000038      0.000573      0.000577      0.000000
     36 C     c       0.003203      0.003322      0.001627      0.000000
     37 C     c       0.001294     -0.001429     -0.003936      0.000000
     38 C     c       0.003903      0.002208     -0.004822      0.000000
     39 C     c      -0.003121      0.000420     -0.000237      0.000000
     40 C     c       0.000648      0.000572     -0.002657      0.000000
     41 C     c      -0.006600      0.001063     -0.002422      0.000000
     42 C     c       0.001776     -0.006760      0.009040      0.000000
     43 C     c      -0.000269     -0.000483     -0.000108      0.000000
     44 C     c       0.002866      0.002979     -0.000596      0.000000
     45 C     c      -0.002098      0.002051     -0.002420      0.000000
     46 C     c      -0.001065      0.000758     -0.001382      0.000000
     47 C     c       0.006109     -0.001021      0.002960      0.000000
     48 C     c      -0.000133      0.004797      0.000571      0.000000
     49 C     c       0.000895     -0.005753      0.003207      0.000000
     50 C     c       0.002333     -0.000533     -0.002213      0.000000
     51 C     c       0.006365     -0.003446     -0.002021      0.000000
     52 C     c      -0.001306      0.002845     -0.005769      0.000000
     53 C     c      -0.000066      0.004853      0.000502      0.000000
     54 C     c       0.004180      0.002619     -0.004868      0.000000
     55 C     c      -0.002229      0.001223     -0.001665      0.000000
     56 C     c      -0.002631      0.004605      0.002535      0.000000
     57 C     c       0.000077      0.001076     -0.002263      0.000000
     58 C     c       0.001173      0.000652     -0.001180      0.000000
     59 C     c      -0.002548     -0.000878      0.006806      0.000000
     60 C     c       0.000823     -0.000403      0.002220      0.000000
     61 C     c      -0.001875      0.000317     -0.002676      0.000000
     62 C     c      -0.000836      0.001857     -0.002456      0.000000
     63 C     c       0.003779      0.007568      0.000333      0.000000
     64 C     c       0.002023     -0.000454      0.001940      0.000000
--------------------------------------------------------------------------------
  Maximum abs         0.006600      0.007568      0.009040      0.000000
--------------------------------------------------------------------------------


  Time to end of optimisation =       0.6748 seconds


  Peak dynamic memory used =       2.01 MB 


  Timing analysis for GULP :

--------------------------------------------------------------------------------
  Task / Subroutine                                          Time (Seconds)
--------------------------------------------------------------------------------
  Calculation of Brenner energy and derivatives                   0.6505
--------------------------------------------------------------------------------
  Total CPU time                                                  0.6749
--------------------------------------------------------------------------------


  CIF file written as opti_0.9950.cif


  Job Finished at 16:20.08 12th August     2020                               

