********************************************************************************
*                       GENERAL UTILITY LATTICE PROGRAM                        *
*                                 Julian Gale                                  *
*                       Curtin Institute for Computation                       *
*                    School of Molecular and Life Sciences                     *
*                    Curtin University, Western Australia                      *
********************************************************************************
* Version = 5.2.0 * Last modified =  17th December 2019                        *
********************************************************************************
*  optimise     - perform optimisation run                                     *
*  conv         - constant volume calculation                                  *
*  isotropic    - only isotropic cell expansion to be allowed                  *
*  conjugate    - use conjugate gradients minimiser                            *
********************************************************************************
* ASE calculation                                                              *
********************************************************************************


  Job Started  at 23:35.44 10th August     2020                               

  Number of CPUs =     1


  Total number of configurations input =      1

********************************************************************************
*  Input for Configuration =   1                                               *
********************************************************************************

  Formula = C64                                                         

  Number of irreducible atoms/shells =      64


  Total number atoms/shells =      64

  Dimensionality = 3               :  Bulk   



  Cartesian lattice vectors (Angstroms) :

        7.596278    0.000000    0.000000
        0.000000    7.596278    0.000000
        0.000000    0.000000    7.596278

  Cell parameters (Angstroms/Degrees):

  a =       7.5963    alpha =  90.0000
  b =       7.5963    beta  =  90.0000
  c =       7.5963    gamma =  90.0000

  Initial cell volume =         438.331368 Angs**3

  Temperature of configuration =   0.00     K 

  Pressure of configuration =         0.000 GPa 

  Fractional coordinates of asymmetric unit :

--------------------------------------------------------------------------------
   No.  Atomic       x           y          z         Charge      Occupancy
        Label      (Frac)      (Frac)     (Frac)        (e)         (Frac)  
--------------------------------------------------------------------------------
      1 C     c    0.025100    0.587150    0.365320     0.00000    1.000000    
      2 C     c    0.261960 *  0.102350 *  0.107880 *   0.00000    1.000000    
      3 C     c    0.100080 *  0.438460 *  0.267700 *   0.00000    1.000000    
      4 C     c    0.878960 *  0.966820 *  0.452800 *   0.00000    1.000000    
      5 C     c    0.476970 *  0.917400 *  0.988740 *   0.00000    1.000000    
      6 C     c    0.786990 *  0.447150 *  0.220140 *   0.00000    1.000000    
      7 C     c    0.923040 *  0.637530 *  0.717050 *   0.00000    1.000000    
      8 C     c    0.810170 *  0.554570 *  0.590270 *   0.00000    1.000000    
      9 C     c    0.131790 *  0.380040 *  0.638710 *   0.00000    1.000000    
     10 C     c    0.404270 *  0.764550 *  0.117610 *   0.00000    1.000000    
     11 C     c    0.889700 *  0.256980 *  0.746610 *   0.00000    1.000000    
     12 C     c    0.569910 *  0.900620 *  0.557400 *   0.00000    1.000000    
     13 C     c    0.425650 *  0.240870 *  0.632440 *   0.00000    1.000000    
     14 C     c    0.200020 *  0.983730 *  0.798590 *   0.00000    1.000000    
     15 C     c    0.523060 *  0.608540 *  0.406760 *   0.00000    1.000000    
     16 C     c    0.987720 *  0.938200 *  0.121300 *   0.00000    1.000000    
     17 C     c    0.134680 *  0.821550 *  0.858210 *   0.00000    1.000000    
     18 C     c    0.347750 *  0.690110 *  0.662490 *   0.00000    1.000000    
     19 C     c    0.738190 *  0.384180 *  0.683430 *   0.00000    1.000000    
     20 C     c    0.046460 *  0.258110 *  0.266300 *   0.00000    1.000000    
     21 C     c    0.936080 *  0.173340 *  0.419850 *   0.00000    1.000000    
     22 C     c    0.843300 *  0.615880 *  0.414960 *   0.00000    1.000000    
     23 C     c    0.478470 *  0.818970 *  0.689890 *   0.00000    1.000000    
     24 C     c    0.794120 *  0.296780 *  0.327440 *   0.00000    1.000000    
     25 C     c    0.669440 *  0.161030 *  0.017330 *   0.00000    1.000000    
     26 C     c    0.520340 *  0.604650 *  0.088350 *   0.00000    1.000000    
     27 C     c    0.606080 *  0.280540 *  0.571440 *   0.00000    1.000000    
     28 C     c    0.633890 *  0.989520 *  0.119020 *   0.00000    1.000000    
     29 C     c    0.479160 *  0.916090 *  0.251290 *   0.00000    1.000000    
     30 C     c    0.339390 *  0.056680 *  0.923070 *   0.00000    1.000000    
     31 C     c    0.810280 *  0.113020 *  0.884120 *   0.00000    1.000000    
     32 C     c    0.867960 *  0.767490 *  0.838100 *   0.00000    1.000000    
     33 C     c    0.307470 *  0.395320 *  0.575810 *   0.00000    1.000000    
     34 C     c    0.226620 *  0.687030 *  0.123410 *   0.00000    1.000000    
     35 C     c    0.071610 *  0.510040 *  0.779400 *   0.00000    1.000000    
     36 C     c    0.326190 *  0.102150 *  0.509580 *   0.00000    1.000000    
     37 C     c    0.121970 *  0.741100 *  0.423810 *   0.00000    1.000000    
     38 C     c    0.542650 *  0.314790 *  0.957100 *   0.00000    1.000000    
     39 C     c    0.063420 *  0.131370 *  0.109250 *   0.00000    1.000000    
     40 C     c    0.769650 *  0.942180 *  0.796810 *   0.00000    1.000000    
     41 C     c    0.392750 *  0.558230 *  0.534200 *   0.00000    1.000000    
     42 C     c    0.068190 *  0.896530 *  0.498720 *   0.00000    1.000000    
     43 C     c    0.001700 *  0.428840 *  0.954850 *   0.00000    1.000000    
     44 C     c    0.238470 *  0.500650 *  0.156150 *   0.00000    1.000000    
     45 C     c    0.195640 *  0.672080 *  0.768160 *   0.00000    1.000000    
     46 C     c    0.892950 *  0.519810 *  0.081840 *   0.00000    1.000000    
     47 C     c    0.799970 *  0.863030 *  0.155410 *   0.00000    1.000000    
     48 C     c    0.985830 *  0.222020 *  0.949250 *   0.00000    1.000000    
     49 C     c    0.775600 *  0.805370 *  0.350130 *   0.00000    1.000000    
     50 C     c    0.821570 *  0.700470 *  0.025360 *   0.00000    1.000000    
     51 C     c    0.158980 *  0.041530 *  0.607950 *   0.00000    1.000000    
     52 C     c    0.476040 *  0.263670 *  0.276630 *   0.00000    1.000000    
     53 C     c    0.434680 *  0.399100 *  0.122780 *   0.00000    1.000000    
     54 C     c    0.365660 *  0.086630 *  0.294640 *   0.00000    1.000000    
     55 C     c    0.624160 *  0.266270 *  0.391700 *   0.00000    1.000000    
     56 C     c    0.422290 *  0.211340 *  0.832230 *   0.00000    1.000000    
     57 C     c    0.643820 *  0.455720 *  0.850330 *   0.00000    1.000000    
     58 C     c    0.737120 *  0.967710 *  0.602660 *   0.00000    1.000000    
     59 C     c    0.099210 *  0.802470 *  0.043610 *   0.00000    1.000000    
     60 C     c    0.617730 *  0.536110 *  0.254430 *   0.00000    1.000000    
     61 C     c    0.572990 *  0.809180 *  0.390000 *   0.00000    1.000000    
     62 C     c    0.027000 *  0.208410 *  0.602340 *   0.00000    1.000000    
     63 C     c    0.640770 *  0.641500 *  0.932270 *   0.00000    1.000000    
     64 C     c    0.588560 *  0.824650 *  0.852350 *   0.00000    1.000000    
--------------------------------------------------------------------------------


  Constraints : 

--------------------------------------------------------------------------------
  Constraint no.      Unconstrained     Constrained    Coefficient    Offset
                         Variable         Variable
--------------------------------------------------------------------------------
           1              Strain 1        Strain 2       1.00000      0.0000
           2              Strain 1        Strain 3       1.00000      0.0000
--------------------------------------------------------------------------------


********************************************************************************
*  General input information                                                   *
********************************************************************************

  Species output for all configurations : 

--------------------------------------------------------------------------------
  Species    Type    Atomic    Atomic    Charge       Radii (Angs)     Library
                     Number     Mass       (e)     Cova   Ionic  VDW   Symbol
--------------------------------------------------------------------------------
    C        Core        6      12.01   0.000000   0.770  0.000  1.530          
--------------------------------------------------------------------------------


  Lattice summation method               =    Ewald          (3-D)
                                         =    Parry          (2-D)
                                         =    Saunders et al (1-D)
  Accuracy factor for lattice sums       =   12.000


  Analytic derivatives to be used

  Time limit = Infinity

  Maximum range for interatomic potentials =    100000.000000 Angstroms

  Brenner et al 2002 potential to be used with explicit splines for P


********************************************************************************
*  Output for configuration   1                                                *
********************************************************************************


  Components of energy : 

--------------------------------------------------------------------------------
  Interatomic potentials     =           0.00000000 eV    
  Brenner potentials         =        -428.41546273 eV    
  Monopole - monopole (real) =           0.00000000 eV    
  Monopole - monopole (recip)=           0.00000000 eV    
  Monopole - monopole (total)=           0.00000000 eV    
--------------------------------------------------------------------------------
  Total lattice energy       =        -428.41546273 eV    
--------------------------------------------------------------------------------
  Total lattice energy       =          -41335.5432 kJ/(mole unit cells)
--------------------------------------------------------------------------------


  Number of variables =      189

  Maximum number of calculations  =          2000
  Maximum Hessian update interval =            10
  Maximum step size               =   1.000000000
  Maximum parameter tolerance     =   0.000010000
  Maximum function  tolerance     =   0.000010000
  Maximum gradient  tolerance     =   0.001000000
  Maximum gradient  component     =   0.010000000

  Symmetry not applied to optimisation

  Conjugate gradient optimiser to be used

  Lower half triangular hessian to be used

  Start of bulk optimisation :

  Cycle:      0 Energy:      -428.415463  Gnorm:      0.072937  CPU:    0.038
  Cycle:      1 Energy:      -428.421607  Gnorm:      0.033827  CPU:    0.070
  Cycle:      2 Energy:      -428.424560  Gnorm:      0.022217  CPU:    0.083
  Cycle:      3 Energy:      -428.426215  Gnorm:      0.024105  CPU:    0.091
  Cycle:      4 Energy:      -428.427463  Gnorm:      0.020326  CPU:    0.115
  Cycle:      5 Energy:      -428.428495  Gnorm:      0.017109  CPU:    0.124
  Cycle:      6 Energy:      -428.429338  Gnorm:      0.016157  CPU:    0.131
  Cycle:      7 Energy:      -428.429863  Gnorm:      0.012731  CPU:    0.136
  Cycle:      8 Energy:      -428.430339  Gnorm:      0.012029  CPU:    0.159
  Cycle:      9 Energy:      -428.430677  Gnorm:      0.010027  CPU:    0.168
  Cycle:     10 Energy:      -428.430799  Gnorm:      0.005126  CPU:    0.175
  Cycle:     11 Energy:      -428.430934  Gnorm:      0.005878  CPU:    0.189
  Cycle:     12 Energy:      -428.431053  Gnorm:      0.005639  CPU:    0.206
  Cycle:     13 Energy:      -428.431169  Gnorm:      0.004413  CPU:    0.215
  Cycle:     14 Energy:      -428.431234  Gnorm:      0.005284  CPU:    0.238
  Cycle:     15 Energy:      -428.431310  Gnorm:      0.003201  CPU:    0.246
  Cycle:     16 Energy:      -428.431356  Gnorm:      0.004731  CPU:    0.252
  Cycle:     17 Energy:      -428.431411  Gnorm:      0.003142  CPU:    0.258
  Cycle:     18 Energy:      -428.431454  Gnorm:      0.002541  CPU:    0.285
  Cycle:     19 Energy:      -428.431470  Gnorm:      0.002451  CPU:    0.293
  Cycle:     20 Energy:      -428.431478  Gnorm:      0.001520  CPU:    0.299
  Cycle:     21 Energy:      -428.431486  Gnorm:      0.001263  CPU:    0.321
  Cycle:     22 Energy:      -428.431497  Gnorm:      0.002187  CPU:    0.334
  Cycle:     23 Energy:      -428.431506  Gnorm:      0.001345  CPU:    0.341
  Cycle:     24 Energy:      -428.431514  Gnorm:      0.001385  CPU:    0.346
  Cycle:     25 Energy:      -428.431520  Gnorm:      0.001426  CPU:    0.370
  Cycle:     26 Energy:      -428.431527  Gnorm:      0.001716  CPU:    0.381
  Cycle:     27 Energy:      -428.431531  Gnorm:      0.001409  CPU:    0.387
  Cycle:     28 Energy:      -428.431540  Gnorm:      0.001674  CPU:    0.403
  Cycle:     29 Energy:      -428.431546  Gnorm:      0.001086  CPU:    0.420
  Cycle:     30 Energy:      -428.431548  Gnorm:      0.000748  CPU:    0.427
  Cycle:     31 Energy:      -428.431550  Gnorm:      0.000672  CPU:    0.433
  Cycle:     32 Energy:      -428.431552  Gnorm:      0.000817  CPU:    0.459
  Cycle:     33 Energy:      -428.431553  Gnorm:      0.000712  CPU:    0.467
  Cycle:     34 Energy:      -428.431554  Gnorm:      0.000543  CPU:    0.473
  Cycle:     35 Energy:      -428.431555  Gnorm:      0.000451  CPU:    0.483
  Cycle:     36 Energy:      -428.431555  Gnorm:      0.000426  CPU:    0.504
  Cycle:     37 Energy:      -428.431555  Gnorm:      0.000422  CPU:    0.511
  Cycle:     38 Energy:      -428.431559  Gnorm:      0.000838  CPU:    0.522
  Cycle:     39 Energy:      -428.431569  Gnorm:      0.002910  CPU:    0.550
  Cycle:     40 Energy:      -428.431576  Gnorm:      0.000684  CPU:    0.557
  Cycle:     41 Energy:      -428.431579  Gnorm:      0.000806  CPU:    0.565
  Cycle:     42 Energy:      -428.431579  Gnorm:      0.000443  CPU:    0.589
  Cycle:     43 Energy:      -428.431580  Gnorm:      0.000370  CPU:    0.598
  Cycle:     44 Energy:      -428.431580  Gnorm:      0.000367  CPU:    0.605
  Cycle:     45 Energy:      -428.431580  Gnorm:      0.000367  CPU:    0.611
  Cycle:     46 Energy:      -428.431580  Gnorm:      0.000368  CPU:    0.635
  Cycle:     47 Energy:      -428.431581  Gnorm:      0.000685  CPU:    0.649
  Cycle:     48 Energy:      -428.431582  Gnorm:      0.000879  CPU:    0.655
  Cycle:     49 Energy:      -428.431585  Gnorm:      0.001223  CPU:    0.678
  Cycle:     50 Energy:      -428.431587  Gnorm:      0.000412  CPU:    0.687
  Cycle:     51 Energy:      -428.431587  Gnorm:      0.000369  CPU:    0.694
  Cycle:     52 Energy:      -428.431587  Gnorm:      0.000340  CPU:    0.700
  Cycle:     53 Energy:      -428.431588  Gnorm:      0.000903  CPU:    0.729
  Cycle:     54 Energy:      -428.431589  Gnorm:      0.000729  CPU:    0.737
  Cycle:     55 Energy:      -428.431593  Gnorm:      0.000524  CPU:    0.743
  Cycle:     56 Energy:      -428.431593  Gnorm:      0.000446  CPU:    0.753
  Cycle:     57 Energy:      -428.431594  Gnorm:      0.000386  CPU:    0.773
  Cycle:     58 Energy:      -428.431594  Gnorm:      0.000306  CPU:    0.781


  **** Optimisation achieved ****


  Final energy =    -428.43159421 eV
  Final Gnorm  =       0.00028187

  Components of energy : 

--------------------------------------------------------------------------------
  Interatomic potentials     =           0.00000000 eV    
  Brenner potentials         =        -428.43159421 eV    
  Monopole - monopole (real) =           0.00000000 eV    
  Monopole - monopole (recip)=           0.00000000 eV    
  Monopole - monopole (total)=           0.00000000 eV    
--------------------------------------------------------------------------------
  Total lattice energy       =        -428.43159421 eV    
--------------------------------------------------------------------------------
  Total lattice energy       =          -41337.0997 kJ/(mole unit cells)
--------------------------------------------------------------------------------

  Final fractional coordinates of atoms :

--------------------------------------------------------------------------------
   No.  Atomic        x           y          z          Radius
        Label       (Frac)      (Frac)     (Frac)       (Angs) 
--------------------------------------------------------------------------------
     1  C     c     0.025100    0.587150    0.365320    0.000000
     2  C     c     0.261541    0.102400    0.107513    0.000000
     3  C     c     0.100002    0.438928    0.267416    0.000000
     4  C     c     0.879101    0.967112    0.452759    0.000000
     5  C     c     0.477243    0.917002    0.988966    0.000000
     6  C     c     0.786602    0.447710    0.220680    0.000000
     7  C     c     0.921988    0.636580    0.717332    0.000000
     8  C     c     0.810316    0.553645    0.590053    0.000000
     9  C     c     0.132106    0.380285    0.639244    0.000000
    10  C     c     0.404710    0.764353    0.117688    0.000000
    11  C     c     0.889321    0.256238    0.746427    0.000000
    12  C     c     0.570821    0.899109    0.557345    0.000000
    13  C     c     0.425583    0.240990    0.632352    0.000000
    14  C     c     0.200867    0.983327    0.798259    0.000000
    15  C     c     0.522596    0.608379    0.406631    0.000000
    16  C     c     0.988070    0.938087    0.120650    0.000000
    17  C     c     0.136017    0.821377    0.858249    0.000000
    18  C     c     0.348453    0.689645    0.662842    0.000000
    19  C     c     0.737972    0.383699    0.683402    0.000000
    20  C     c     0.045489    0.258910    0.265793    0.000000
    21  C     c     0.936120    0.173921    0.419960    0.000000
    22  C     c     0.843513    0.615513    0.415138    0.000000
    23  C     c     0.479346    0.817946    0.689696    0.000000
    24  C     c     0.794184    0.297679    0.328039    0.000000
    25  C     c     0.669181    0.160063    0.016467    0.000000
    26  C     c     0.520277    0.604488    0.088572    0.000000
    27  C     c     0.605799    0.280704    0.571348    0.000000
    28  C     c     0.634427    0.988871    0.118623    0.000000
    29  C     c     0.479862    0.916067    0.250817    0.000000
    30  C     c     0.339689    0.056421    0.923117    0.000000
    31  C     c     0.810001    0.112345    0.883511    0.000000
    32  C     c     0.866258    0.766214    0.837906    0.000000
    33  C     c     0.307581    0.395509    0.576526    0.000000
    34  C     c     0.227161    0.687266    0.123495    0.000000
    35  C     c     0.071521    0.510713    0.779384    0.000000
    36  C     c     0.326095    0.102694    0.509180    0.000000
    37  C     c     0.120920    0.741454    0.423862    0.000000
    38  C     c     0.542790    0.314390    0.956931    0.000000
    39  C     c     0.062995    0.131901    0.108893    0.000000
    40  C     c     0.769580    0.941528    0.796538    0.000000
    41  C     c     0.392830    0.558071    0.534472    0.000000
    42  C     c     0.068109    0.896980    0.498412    0.000000
    43  C     c     0.000580    0.429049    0.954708    0.000000
    44  C     c     0.238790    0.501110    0.156656    0.000000
    45  C     c     0.196627    0.671784    0.768607    0.000000
    46  C     c     0.891941    0.519592    0.081769    0.000000
    47  C     c     0.800630    0.862472    0.154911    0.000000
    48  C     c     0.984810    0.222364    0.948863    0.000000
    49  C     c     0.775888    0.805201    0.349850    0.000000
    50  C     c     0.820829    0.700006    0.025298    0.000000
    51  C     c     0.159134    0.041666    0.607706    0.000000
    52  C     c     0.476800    0.263675    0.276507    0.000000
    53  C     c     0.435235    0.399294    0.122817    0.000000
    54  C     c     0.366333    0.086741    0.293541    0.000000
    55  C     c     0.624301    0.266665    0.391933    0.000000
    56  C     c     0.422576    0.210857    0.832135    0.000000
    57  C     c     0.643846    0.455276    0.850312    0.000000
    58  C     c     0.737493    0.966428    0.602531    0.000000
    59  C     c     0.100262    0.802829    0.043435    0.000000
    60  C     c     0.617311    0.536135    0.254491    0.000000
    61  C     c     0.573333    0.808714    0.389597    0.000000
    62  C     c     0.027103    0.209017    0.602603    0.000000
    63  C     c     0.640282    0.640801    0.932478    0.000000
    64  C     c     0.588429    0.824038    0.852503    0.000000
--------------------------------------------------------------------------------

  Final internal derivatives :

--------------------------------------------------------------------------------
   No.  Atomic          a             b             c           Radius
        Label          (eV)          (eV)          (eV)        (eV/Angs)
--------------------------------------------------------------------------------
      1 C     c       0.000000      0.000000      0.000000      0.000000
      2 C     c      -0.002424      0.004292      0.003406      0.000000
      3 C     c       0.000785      0.002245     -0.000942      0.000000
      4 C     c      -0.000069      0.003761      0.002680      0.000000
      5 C     c      -0.003714      0.005804      0.008034      0.000000
      6 C     c      -0.002076      0.006071      0.001286      0.000000
      7 C     c       0.007408      0.009190      0.002891      0.000000
      8 C     c       0.003279      0.006953      0.006194      0.000000
      9 C     c      -0.001776      0.003377      0.005531      0.000000
     10 C     c      -0.002967      0.006092      0.002089      0.000000
     11 C     c      -0.001359      0.005104      0.002648      0.000000
     12 C     c      -0.000982      0.006047      0.001848      0.000000
     13 C     c       0.001613      0.004468      0.002446      0.000000
     14 C     c      -0.001857      0.007641      0.002044      0.000000
     15 C     c      -0.000675      0.005841      0.001361      0.000000
     16 C     c      -0.001180      0.005684      0.002795      0.000000
     17 C     c      -0.003010      0.006084     -0.000979      0.000000
     18 C     c      -0.004768      0.006642      0.001806      0.000000
     19 C     c       0.000691      0.008525      0.002350      0.000000
     20 C     c      -0.000161      0.003123      0.001378      0.000000
     21 C     c      -0.002921      0.003908      0.002757      0.000000
     22 C     c      -0.003784      0.005841      0.003259      0.000000
     23 C     c      -0.001841      0.003911      0.002327      0.000000
     24 C     c       0.000517      0.006606      0.002896      0.000000
     25 C     c      -0.001729      0.007300      0.000662      0.000000
     26 C     c      -0.003391      0.006152      0.004836      0.000000
     27 C     c       0.000830      0.009314      0.006150      0.000000
     28 C     c      -0.002826      0.003351      0.004084      0.000000
     29 C     c      -0.002518      0.007412     -0.001489      0.000000
     30 C     c      -0.000041      0.003812      0.002556      0.000000
     31 C     c      -0.000695      0.003730      0.001606      0.000000
     32 C     c       0.008821      0.009511      0.005242      0.000000
     33 C     c      -0.001715      0.005029      0.003974      0.000000
     34 C     c      -0.001670      0.001982      0.001093      0.000000
     35 C     c       0.002096      0.001257      0.004327      0.000000
     36 C     c       0.000117      0.006866      0.003757      0.000000
     37 C     c      -0.000421      0.001809     -0.000372      0.000000
     38 C     c      -0.000382      0.002160      0.006515      0.000000
     39 C     c      -0.001624      0.001246      0.002181      0.000000
     40 C     c       0.000108      0.005185      0.002907      0.000000
     41 C     c      -0.001808      0.006280      0.003090      0.000000
     42 C     c      -0.000387      0.002721     -0.000500      0.000000
     43 C     c      -0.001612      0.003586      0.003342      0.000000
     44 C     c      -0.001581      0.002872     -0.001079      0.000000
     45 C     c      -0.004894      0.005954     -0.000069      0.000000
     46 C     c      -0.001766      0.004665      0.000790      0.000000
     47 C     c      -0.003688      0.003797     -0.001679      0.000000
     48 C     c      -0.000044      0.003233      0.005153      0.000000
     49 C     c       0.000914      0.002068      0.005228      0.000000
     50 C     c       0.001522      0.005354     -0.000025      0.000000
     51 C     c       0.000095      0.003710      0.002336      0.000000
     52 C     c      -0.002126      0.007218      0.001328      0.000000
     53 C     c      -0.000319      0.004592      0.003496      0.000000
     54 C     c       0.000957      0.005897      0.003192      0.000000
     55 C     c      -0.000884      0.006560      0.005510      0.000000
     56 C     c      -0.001372      0.005348      0.000962      0.000000
     57 C     c       0.000205      0.007495      0.003860      0.000000
     58 C     c       0.002269      0.002730      0.002772      0.000000
     59 C     c      -0.002364      0.002612     -0.000343      0.000000
     60 C     c      -0.000791      0.004785      0.003358      0.000000
     61 C     c      -0.000530     -0.000687      0.004912      0.000000
     62 C     c       0.000265      0.004288      0.002186      0.000000
     63 C     c      -0.003929      0.005218      0.002775      0.000000
     64 C     c      -0.000955      0.003985      0.001965      0.000000
--------------------------------------------------------------------------------
  Maximum abs         0.008821      0.009511      0.008034      0.000000
--------------------------------------------------------------------------------


  Time to end of optimisation =       0.7870 seconds


  Peak dynamic memory used =       1.98 MB 


  Timing analysis for GULP :

--------------------------------------------------------------------------------
  Task / Subroutine                                          Time (Seconds)
--------------------------------------------------------------------------------
  Calculation of Brenner energy and derivatives                   0.7602
--------------------------------------------------------------------------------
  Total CPU time                                                  0.7871
--------------------------------------------------------------------------------


  CIF file written as opti_0.9950.cif


  Job Finished at 23:35.45 10th August     2020                               

