********************************************************************************
*                       GENERAL UTILITY LATTICE PROGRAM                        *
*                                 Julian Gale                                  *
*                       Curtin Institute for Computation                       *
*                           Department of Chemistry                            *
*                    Curtin University, Western Australia                      *
********************************************************************************
* Version = 5.1.1 * Last modified =  21st January 2019                         *
********************************************************************************
*  single       - perform a single point run                                   *
*  phonon       - calculate phonons for final geometry                         *
*  nofrequency  - suppress frequency output after phonon calculation           *
********************************************************************************
* ASE calculation                                                              *
********************************************************************************


  Job Started  at 10:17.10 22nd April      2021                               

  Number of CPUs =    12

  Host name      = p0                                      


  Total number of configurations input =      1

********************************************************************************
*  Input for Configuration =   1                                               *
********************************************************************************

  Formula = C512                                                        

  Number of irreducible atoms/shells =     512


  Total number atoms/shells =     512

  Dimensionality = 3               :  Bulk   



  Cartesian lattice vectors (Angstroms) :

       14.688105    0.000000    0.000000
        0.000000   14.688105    0.000000
        0.000000    0.000000   14.688105

  Cell parameters (Angstroms/Degrees):

  a =      14.6881    alpha =  90.0000
  b =      14.6881    beta  =  90.0000
  c =      14.6881    gamma =  90.0000

  Initial cell volume =        3168.818066 Angs**3

  Shrinking factors =      4     4     4

  Temperature of configuration =  0.000     K 

  Pressure of configuration =         0.000 GPa 

  Fractional coordinates of asymmetric unit :

--------------------------------------------------------------------------------
   No.  Atomic       x           y          z         Charge      Occupancy
        Label      (Frac)      (Frac)     (Frac)        (e)         (Frac)  
--------------------------------------------------------------------------------
      1 C     c    0.337148    0.083772    0.601114     0.00000    1.000000    
      2 C     c    0.457180    0.131737    0.518360     0.00000    1.000000    
      3 C     c    0.728962    0.394537    0.091653     0.00000    1.000000    
      4 C     c    0.827199    0.135747    0.224631     0.00000    1.000000    
      5 C     c    0.449529    0.988678    0.177143     0.00000    1.000000    
      6 C     c    0.376198    0.714343    0.792400     0.00000    1.000000    
      7 C     c    0.940480    0.803900    0.366369     0.00000    1.000000    
      8 C     c    0.113424    0.726263    0.167423     0.00000    1.000000    
      9 C     c    0.158867    0.413420    0.180332     0.00000    1.000000    
     10 C     c    0.075872    0.562861    0.938587     0.00000    1.000000    
     11 C     c    0.455760    0.495143    0.452857     0.00000    1.000000    
     12 C     c    0.193163    0.162473    0.627326     0.00000    1.000000    
     13 C     c    0.502093    0.872940    0.645792     0.00000    1.000000    
     14 C     c    0.951084    0.827472    0.921076     0.00000    1.000000    
     15 C     c    0.270577    0.020446    0.644921     0.00000    1.000000    
     16 C     c    0.138997    0.251530    0.373509     0.00000    1.000000    
     17 C     c    0.643199    0.478211    0.730265     0.00000    1.000000    
     18 C     c    0.155948    0.848272    0.800989     0.00000    1.000000    
     19 C     c    0.672629    0.890248    0.523782     0.00000    1.000000    
     20 C     c    0.362272    0.981080    0.789722     0.00000    1.000000    
     21 C     c    0.788641    0.896379    0.056570     0.00000    1.000000    
     22 C     c    0.969318    0.483741    0.343150     0.00000    1.000000    
     23 C     c    0.755150    0.348802    0.661394     0.00000    1.000000    
     24 C     c    0.227749    0.359084    0.550520     0.00000    1.000000    
     25 C     c    0.577478    0.960691    0.403552     0.00000    1.000000    
     26 C     c    0.109334    0.462754    0.922363     0.00000    1.000000    
     27 C     c    0.587799    0.723109    0.986019     0.00000    1.000000    
     28 C     c    0.930393    0.738119    0.190403     0.00000    1.000000    
     29 C     c    0.349596    0.025062    0.893708     0.00000    1.000000    
     30 C     c    0.225159    0.293952    0.315121     0.00000    1.000000    
     31 C     c    0.172786    0.441979    0.502437     0.00000    1.000000    
     32 C     c    0.666470    0.552192    0.020376     0.00000    1.000000    
     33 C     c    0.017664    0.136900    0.647329     0.00000    1.000000    
     34 C     c    0.509773    0.200328    0.142803     0.00000    1.000000    
     35 C     c    0.579297    0.647423    0.917103     0.00000    1.000000    
     36 C     c    0.936724    0.459781    0.539185     0.00000    1.000000    
     37 C     c    0.255889    0.285721    0.954702     0.00000    1.000000    
     38 C     c    0.738488    0.556802    0.934481     0.00000    1.000000    
     39 C     c    0.774711    0.478059    0.240334     0.00000    1.000000    
     40 C     c    0.715001    0.350572    0.823691     0.00000    1.000000    
     41 C     c    0.991109    0.086312    0.737530     0.00000    1.000000    
     42 C     c    0.151709    0.627019    0.974388     0.00000    1.000000    
     43 C     c    0.973108    0.883591    0.298419     0.00000    1.000000    
     44 C     c    0.570810    0.238968    0.998972     0.00000    1.000000    
     45 C     c    0.847741    0.104353    0.656078     0.00000    1.000000    
     46 C     c    0.879844    0.766213    0.979417     0.00000    1.000000    
     47 C     c    0.019716    0.316559    0.312960     0.00000    1.000000    
     48 C     c    0.625570    0.942073    0.017533     0.00000    1.000000    
     49 C     c    0.749149    0.382185    0.256477     0.00000    1.000000    
     50 C     c    0.319942    0.444201    0.603078     0.00000    1.000000    
     51 C     c    0.026589    0.315021    0.675568     0.00000    1.000000    
     52 C     c    0.206949    0.473680    0.860709     0.00000    1.000000    
     53 C     c    0.044586    0.780339    0.672095     0.00000    1.000000    
     54 C     c    0.177388    0.390608    0.806584     0.00000    1.000000    
     55 C     c    0.247751    0.239017    0.782948     0.00000    1.000000    
     56 C     c    0.208138    0.982821    0.412090     0.00000    1.000000    
     57 C     c    0.061568    0.762643    0.083234     0.00000    1.000000    
     58 C     c    0.430369    0.105399    0.274300     0.00000    1.000000    
     59 C     c    0.234604    0.566018    0.819036     0.00000    1.000000    
     60 C     c    0.582461    0.333033    0.629670     0.00000    1.000000    
     61 C     c    0.212961    0.123020    0.103040     0.00000    1.000000    
     62 C     c    0.389568    0.180379    0.906137     0.00000    1.000000    
     63 C     c    0.521759    0.524503    0.132825     0.00000    1.000000    
     64 C     c    0.055704    0.442094    0.182598     0.00000    1.000000    
     65 C     c    0.386847    0.372427    0.348752     0.00000    1.000000    
     66 C     c    0.813950    0.006530    0.071239     0.00000    1.000000    
     67 C     c    0.297398    0.253218    0.125411     0.00000    1.000000    
     68 C     c    0.476102    0.284021    0.481637     0.00000    1.000000    
     69 C     c    0.372072    0.723409    0.604332     0.00000    1.000000    
     70 C     c    0.796447    0.136544    0.899841     0.00000    1.000000    
     71 C     c    0.742061    0.478253    0.424319     0.00000    1.000000    
     72 C     c    0.862669    0.071193    0.848979     0.00000    1.000000    
     73 C     c    0.695580    0.877305    0.330970     0.00000    1.000000    
     74 C     c    0.115968    0.328429    0.551590     0.00000    1.000000    
     75 C     c    0.025093    0.066972    0.041148     0.00000    1.000000    
     76 C     c    0.000470    0.136902    0.314664     0.00000    1.000000    
     77 C     c    0.840119    0.788010    0.371782     0.00000    1.000000    
     78 C     c    0.695414    0.198078    0.598051     0.00000    1.000000    
     79 C     c    0.844030    0.418481    0.930553     0.00000    1.000000    
     80 C     c    0.072574    0.267277    0.228860     0.00000    1.000000    
     81 C     c    0.488370    0.343678    0.681398     0.00000    1.000000    
     82 C     c    0.523026    0.433270    0.000853     0.00000    1.000000    
     83 C     c    0.041157    0.599311    0.839630     0.00000    1.000000    
     84 C     c    0.599841    0.724117    0.340976     0.00000    1.000000    
     85 C     c    0.189524    0.921642    0.960198     0.00000    1.000000    
     86 C     c    0.572999    0.471813    0.081807     0.00000    1.000000    
     87 C     c    0.222051    0.845273    0.888414     0.00000    1.000000    
     88 C     c    0.639710    0.812002    0.385994     0.00000    1.000000    
     89 C     c    0.549833    0.721208    0.532778     0.00000    1.000000    
     90 C     c    0.425758    0.570694    0.601693     0.00000    1.000000    
     91 C     c    0.820391    0.939649    0.728429     0.00000    1.000000    
     92 C     c    0.415818    0.905423    0.127716     0.00000    1.000000    
     93 C     c    0.922731    0.488239    0.439781     0.00000    1.000000    
     94 C     c    0.090549    0.187693    0.295969     0.00000    1.000000    
     95 C     c    0.519978    0.071017    0.032926     0.00000    1.000000    
     96 C     c    0.854231    0.978859    0.225350     0.00000    1.000000    
     97 C     c    0.259323    0.624784    0.642264     0.00000    1.000000    
     98 C     c    0.673043    0.558990    0.434771     0.00000    1.000000    
     99 C     c    0.213268    0.426273    0.344589     0.00000    1.000000    
    100 C     c    0.137338    0.044538    0.357920     0.00000    1.000000    
    101 C     c    0.192605    0.084477    0.886111     0.00000    1.000000    
    102 C     c    0.887277    0.867090    0.033189     0.00000    1.000000    
    103 C     c    0.803882    0.173542    0.053998     0.00000    1.000000    
    104 C     c    0.722951    0.298173    0.917790     0.00000    1.000000    
    105 C     c    0.972350    0.946548    0.631951     0.00000    1.000000    
    106 C     c    0.635111    0.416967    0.822174     0.00000    1.000000    
    107 C     c    0.665760    0.895977    0.703765     0.00000    1.000000    
    108 C     c    0.074399    0.564517    0.313693     0.00000    1.000000    
    109 C     c    0.494431    0.196387    0.774192     0.00000    1.000000    
    110 C     c    0.551508    0.023437    0.859723     0.00000    1.000000    
    111 C     c    0.603201    0.621392    0.690593     0.00000    1.000000    
    112 C     c    0.244760    0.915413    0.298552     0.00000    1.000000    
    113 C     c    0.527031    0.131714    0.849958     0.00000    1.000000    
    114 C     c    0.423509    0.469017    0.014669     0.00000    1.000000    
    115 C     c    0.071511    0.792979    0.836729     0.00000    1.000000    
    116 C     c    0.297462    0.457394    0.907640     0.00000    1.000000    
    117 C     c    0.668679    0.045206    0.611672     0.00000    1.000000    
    118 C     c    0.820782    0.651771    0.595547     0.00000    1.000000    
    119 C     c    0.446591    0.654416    0.328607     0.00000    1.000000    
    120 C     c    0.759470    0.850751    0.817662     0.00000    1.000000    
    121 C     c    0.181000    0.717986    0.866780     0.00000    1.000000    
    122 C     c    0.832200    0.167453    0.309510     0.00000    1.000000    
    123 C     c    0.443844    0.755654    0.094015     0.00000    1.000000    
    124 C     c    0.632876    0.210233    0.359216     0.00000    1.000000    
    125 C     c    0.929948    0.546518    0.698452     0.00000    1.000000    
    126 C     c    0.696242    0.116586    0.192722     0.00000    1.000000    
    127 C     c    0.338363    0.860139    0.185220     0.00000    1.000000    
    128 C     c    0.565241    0.740224    0.246615     0.00000    1.000000    
    129 C     c    0.451291    0.788944    0.660113     0.00000    1.000000    
    130 C     c    0.164996    0.724757    0.378610     0.00000    1.000000    
    131 C     c    0.692872    0.800218    0.475441     0.00000    1.000000    
    132 C     c    0.332591    0.019651    0.009318     0.00000    1.000000    
    133 C     c    0.036015    0.442994    0.078597     0.00000    1.000000    
    134 C     c    0.057768    0.869417    0.089459     0.00000    1.000000    
    135 C     c    0.025125    0.545405    0.041311     0.00000    1.000000    
    136 C     c    0.247837    0.916191    0.136291     0.00000    1.000000    
    137 C     c    0.567286    0.905687    0.721150     0.00000    1.000000    
    138 C     c    0.100149    0.143209    0.021011     0.00000    1.000000    
    139 C     c    0.569544    0.559081    0.977755     0.00000    1.000000    
    140 C     c    0.588520    0.726586    0.723241     0.00000    1.000000    
    141 C     c    0.086862    0.674134    0.323139     0.00000    1.000000    
    142 C     c    0.006876    0.630409    0.570884     0.00000    1.000000    
    143 C     c    0.635393    0.981941    0.114802     0.00000    1.000000    
    144 C     c    0.088460    0.686257    0.810347     0.00000    1.000000    
    145 C     c    0.913627    0.559370    0.196491     0.00000    1.000000    
    146 C     c    0.397531    0.946449    0.546278     0.00000    1.000000    
    147 C     c    0.534839    0.476715    0.377348     0.00000    1.000000    
    148 C     c    0.078872    0.224882    0.663495     0.00000    1.000000    
    149 C     c    0.603492    0.861748    0.864852     0.00000    1.000000    
    150 C     c    0.697490    0.720629    0.709238     0.00000    1.000000    
    151 C     c    0.098192    0.469178    0.566750     0.00000    1.000000    
    152 C     c    0.922887    0.260911    0.900289     0.00000    1.000000    
    153 C     c    0.002781    0.050642    0.253532     0.00000    1.000000    
    154 C     c    0.695310    0.218532    0.190343     0.00000    1.000000    
    155 C     c    0.517868    0.927640    0.882938     0.00000    1.000000    
    156 C     c    0.546778    0.873177    0.024970     0.00000    1.000000    
    157 C     c    0.825879    0.317817    0.510207     0.00000    1.000000    
    158 C     c    0.123668    0.281209    0.925462     0.00000    1.000000    
    159 C     c    0.810888    0.853031    0.656944     0.00000    1.000000    
    160 C     c    0.818236    0.375652    0.835996     0.00000    1.000000    
    161 C     c    0.250232    0.162270    0.334973     0.00000    1.000000    
    162 C     c    0.777779    0.267048    0.595151     0.00000    1.000000    
    163 C     c    0.437849    0.953563    0.641172     0.00000    1.000000    
    164 C     c    0.930773    0.040880    0.485322     0.00000    1.000000    
    165 C     c    0.364748    0.541678    0.181111     0.00000    1.000000    
    166 C     c    0.556020    0.172568    0.689063     0.00000    1.000000    
    167 C     c    0.010467    0.790170    0.444979     0.00000    1.000000    
    168 C     c    0.176142    0.719097    0.543543     0.00000    1.000000    
    169 C     c    0.493821    0.962676    0.270208     0.00000    1.000000    
    170 C     c    0.597759    0.560394    0.361058     0.00000    1.000000    
    171 C     c    0.705198    0.694982    0.345398     0.00000    1.000000    
    172 C     c    0.256461    0.651363    0.539983     0.00000    1.000000    
    173 C     c    0.282371    0.639368    0.059211     0.00000    1.000000    
    174 C     c    0.171421    0.972300    0.505570     0.00000    1.000000    
    175 C     c    0.373741    0.330599    0.790537     0.00000    1.000000    
    176 C     c    0.298942    0.841080    0.460439     0.00000    1.000000    
    177 C     c    0.700929    0.641350    0.067359     0.00000    1.000000    
    178 C     c    0.716884    0.904752    0.980662     0.00000    1.000000    
    179 C     c    0.016749    0.982483    0.972844     0.00000    1.000000    
    180 C     c    0.215209    0.297329    0.856268     0.00000    1.000000    
    181 C     c    0.945517    0.587900    0.885450     0.00000    1.000000    
    182 C     c    0.803950    0.923279    0.567630     0.00000    1.000000    
    183 C     c    0.699626    0.075112    0.740689     0.00000    1.000000    
    184 C     c    0.223732    0.718662    0.701108     0.00000    1.000000    
    185 C     c    0.905043    0.987053    0.133060     0.00000    1.000000    
    186 C     c    0.537129    0.852808    0.390128     0.00000    1.000000    
    187 C     c    0.926367    0.159104    0.593723     0.00000    1.000000    
    188 C     c    0.370308    0.786113    0.022809     0.00000    1.000000    
    189 C     c    0.381853    0.378101    0.240798     0.00000    1.000000    
    190 C     c    0.488997    0.860365    0.293759     0.00000    1.000000    
    191 C     c    0.188521    0.580591    0.068762     0.00000    1.000000    
    192 C     c    0.854521    0.624640    0.141252     0.00000    1.000000    
    193 C     c    0.471287    0.175386    0.615979     0.00000    1.000000    
    194 C     c    0.365635    0.387511    0.033997     0.00000    1.000000    
    195 C     c    0.981796    0.058600    0.145121     0.00000    1.000000    
    196 C     c    0.618964    0.113713    0.337270     0.00000    1.000000    
    197 C     c    0.377208    0.759549    0.920466     0.00000    1.000000    
    198 C     c    0.265100    0.738627    0.796284     0.00000    1.000000    
    199 C     c    0.078095    0.335381    0.402689     0.00000    1.000000    
    200 C     c    0.878872    0.348313    0.047718     0.00000    1.000000    
    201 C     c    0.810875    0.502721    0.991059     0.00000    1.000000    
    202 C     c    0.238116    0.632585    0.901393     0.00000    1.000000    
    203 C     c    0.523286    0.714932    0.634531     0.00000    1.000000    
    204 C     c    0.319136    0.447848    0.197189     0.00000    1.000000    
    205 C     c    0.860807    0.470232    0.175631     0.00000    1.000000    
    206 C     c    0.855093    0.900368    0.819328     0.00000    1.000000    
    207 C     c    0.132812    0.876831    0.533130     0.00000    1.000000    
    208 C     c    0.338874    0.543278    0.349210     0.00000    1.000000    
    209 C     c    0.850180    0.977216    0.892718     0.00000    1.000000    
    210 C     c    0.559111    0.327701    0.233560     0.00000    1.000000    
    211 C     c    0.178947    0.577159    0.304117     0.00000    1.000000    
    212 C     c    0.495507    0.490780    0.280024     0.00000    1.000000    
    213 C     c    0.126840    0.219418    0.557158     0.00000    1.000000    
    214 C     c    0.864099    0.207920    0.508414     0.00000    1.000000    
    215 C     c    0.600523    0.078993    0.699442     0.00000    1.000000    
    216 C     c    0.128932    0.623757    0.150468     0.00000    1.000000    
    217 C     c    0.933070    0.355527    0.533479     0.00000    1.000000    
    218 C     c    0.105938    0.231368    0.080320     0.00000    1.000000    
    219 C     c    0.149759    0.807842    0.699028     0.00000    1.000000    
    220 C     c    0.019776    0.308882    0.489962     0.00000    1.000000    
    221 C     c    0.970629    0.342460    0.760898     0.00000    1.000000    
    222 C     c    0.304782    0.326347    0.491341     0.00000    1.000000    
    223 C     c    0.485081    0.570766    0.792373     0.00000    1.000000    
    224 C     c    0.026530    0.605506    0.126719     0.00000    1.000000    
    225 C     c    0.661552    0.402200    0.649200     0.00000    1.000000    
    226 C     c    0.718927    0.048462    0.109497     0.00000    1.000000    
    227 C     c    0.813344    0.274288    0.016244     0.00000    1.000000    
    228 C     c    0.645298    0.728959    0.181658     0.00000    1.000000    
    229 C     c    0.024759    0.528899    0.519777     0.00000    1.000000    
    230 C     c    0.604417    0.563811    0.514958     0.00000    1.000000    
    231 C     c    0.435962    0.280871    0.611693     0.00000    1.000000    
    232 C     c    0.055252    0.508561    0.409744     0.00000    1.000000    
    233 C     c    0.100739    0.002031    0.214913     0.00000    1.000000    
    234 C     c    0.224934    0.463863    0.246699     0.00000    1.000000    
    235 C     c    0.112088    0.080007    0.619750     0.00000    1.000000    
    236 C     c    0.818043    0.237735    0.914238     0.00000    1.000000    
    237 C     c    0.412579    0.604627    0.942772     0.00000    1.000000    
    238 C     c    0.649501    0.614668    0.849996     0.00000    1.000000    
    239 C     c    0.288692    0.354533    0.387399     0.00000    1.000000    
    240 C     c    0.462415    0.738850    0.852813     0.00000    1.000000    
    241 C     c    0.720830    0.642462    0.776436     0.00000    1.000000    
    242 C     c    0.121603    0.418799    0.020173     0.00000    1.000000    
    243 C     c    0.407413    0.198763    0.453861     0.00000    1.000000    
    244 C     c    0.322227    0.816260    0.628241     0.00000    1.000000    
    245 C     c    0.247613    0.323843    0.063733     0.00000    1.000000    
    246 C     c    0.088987    0.393020    0.641719     0.00000    1.000000    
    247 C     c    0.141337    0.316129    0.021089     0.00000    1.000000    
    248 C     c    0.476822    0.596754    0.026542     0.00000    1.000000    
    249 C     c    0.584087    0.032908    0.550868     0.00000    1.000000    
    250 C     c    0.253711    0.374542    0.657554     0.00000    1.000000    
    251 C     c    0.271822    0.992787    0.216237     0.00000    1.000000    
    252 C     c    0.085942    0.693693    0.607191     0.00000    1.000000    
    253 C     c    0.920991    0.639928    0.643808     0.00000    1.000000    
    254 C     c    0.849679    0.280362    0.161677     0.00000    1.000000    
    255 C     c    0.722396    0.816868    0.913379     0.00000    1.000000    
    256 C     c    0.623799    0.197783    0.513172     0.00000    1.000000    
    257 C     c    0.158678    0.891887    0.639231     0.00000    1.000000    
    258 C     c    0.358941    0.682191    0.508717     0.00000    1.000000    
    259 C     c    0.170451    0.411429    0.708116     0.00000    1.000000    
    260 C     c    0.140084    0.944962    0.300841     0.00000    1.000000    
    261 C     c    0.332529    0.542655    0.640596     0.00000    1.000000    
    262 C     c    0.687039    0.362457    0.337396     0.00000    1.000000    
    263 C     c    0.949111    0.852732    0.817415     0.00000    1.000000    
    264 C     c    0.189996    0.066571    0.197237     0.00000    1.000000    
    265 C     c    0.120913    0.675437    0.712062     0.00000    1.000000    
    266 C     c    0.265178    0.008807    0.746748     0.00000    1.000000    
    267 C     c    0.650779    0.508800    0.879010     0.00000    1.000000    
    268 C     c    0.782279    0.142701    0.468966     0.00000    1.000000    
    269 C     c    0.268384    0.934341    0.030401     0.00000    1.000000    
    270 C     c    0.284188    0.704742    0.316089     0.00000    1.000000    
    271 C     c    0.627146    0.375724    0.489548     0.00000    1.000000    
    272 C     c    0.021936    0.985802    0.711366     0.00000    1.000000    
    273 C     c    0.309289    0.218546    0.491737     0.00000    1.000000    
    274 C     c    0.240527    0.179137    0.427919     0.00000    1.000000    
    275 C     c    0.942713    0.127989    0.001108     0.00000    1.000000    
    276 C     c    0.795899    0.784671    0.461583     0.00000    1.000000    
    277 C     c    0.855262    0.211649    0.742897     0.00000    1.000000    
    278 C     c    0.019159    0.245870    0.137188     0.00000    1.000000    
    279 C     c    0.539601    0.648461    0.380163     0.00000    1.000000    
    280 C     c    0.977449    0.175226    0.914529     0.00000    1.000000    
    281 C     c    0.577068    0.940038    0.507343     0.00000    1.000000    
    282 C     c    0.383122    0.998698    0.410800     0.00000    1.000000    
    283 C     c    0.091133    0.348222    0.851256     0.00000    1.000000    
    284 C     c    0.420260    0.421442    0.769985     0.00000    1.000000    
    285 C     c    0.734981    0.813652    0.723581     0.00000    1.000000    
    286 C     c    0.702118    0.942020    0.615330     0.00000    1.000000    
    287 C     c    0.152218    0.990483    0.878327     0.00000    1.000000    
    288 C     c    0.400282    0.811396    0.270081     0.00000    1.000000    
    289 C     c    0.594190    0.982034    0.244292     0.00000    1.000000    
    290 C     c    0.946524    0.437351    0.017184     0.00000    1.000000    
    291 C     c    0.616333    0.815220    0.960900     0.00000    1.000000    
    292 C     c    0.782967    0.735626    0.935805     0.00000    1.000000    
    293 C     c    0.745124    0.317131    0.166917     0.00000    1.000000    
    294 C     c    0.921480    0.683932    0.747839     0.00000    1.000000    
    295 C     c    0.923929    0.934707    0.955753     0.00000    1.000000    
    296 C     c    0.704018    0.290130    0.740835     0.00000    1.000000    
    297 C     c    0.487047    0.303804    0.785171     0.00000    1.000000    
    298 C     c    0.778682    0.646393    0.877023     0.00000    1.000000    
    299 C     c    0.095024    0.035237    0.526023     0.00000    1.000000    
    300 C     c    0.128757    0.427611    0.408890     0.00000    1.000000    
    301 C     c    0.236953    0.946262    0.586009     0.00000    1.000000    
    302 C     c    0.620009    0.263070    0.905001     0.00000    1.000000    
    303 C     c    0.805019    0.095408    0.376808     0.00000    1.000000    
    304 C     c    0.005586    0.980129    0.529652     0.00000    1.000000    
    305 C     c    0.109301    0.816103    0.407136     0.00000    1.000000    
    306 C     c    0.534714    0.575969    0.218489     0.00000    1.000000    
    307 C     c    0.364562    0.051788    0.194782     0.00000    1.000000    
    308 C     c    0.925937    0.669130    0.500623     0.00000    1.000000    
    309 C     c    0.230171    0.575289    0.469882     0.00000    1.000000    
    310 C     c    0.310391    0.699813    0.210161     0.00000    1.000000    
    311 C     c    0.680592    0.091113    0.957568     0.00000    1.000000    
    312 C     c    0.190758    0.472081    0.083646     0.00000    1.000000    
    313 C     c    0.840441    0.877454    0.245589     0.00000    1.000000    
    314 C     c    0.305074    0.376739    0.952658     0.00000    1.000000    
    315 C     c    0.653634    0.604282    0.603890     0.00000    1.000000    
    316 C     c    0.983196    0.840370    0.614571     0.00000    1.000000    
    317 C     c    0.662031    0.712640    0.521950     0.00000    1.000000    
    318 C     c    0.686420    0.929643    0.846828     0.00000    1.000000    
    319 C     c    0.592717    0.029759    0.963128     0.00000    1.000000    
    320 C     c    0.955556    0.160136    0.111882     0.00000    1.000000    
    321 C     c    0.163708    0.191781    0.735764     0.00000    1.000000    
    322 C     c    0.192730    0.229610    0.145008     0.00000    1.000000    
    323 C     c    0.869026    0.435998    0.764688     0.00000    1.000000    
    324 C     c    0.460522    0.030114    0.346373     0.00000    1.000000    
    325 C     c    0.026504    0.531809    0.752376     0.00000    1.000000    
    326 C     c    0.787629    0.547747    0.621382     0.00000    1.000000    
    327 C     c    0.186959    0.588920    0.718887     0.00000    1.000000    
    328 C     c    0.713648    0.312297    0.029487     0.00000    1.000000    
    329 C     c    0.628714    0.567191    0.261606     0.00000    1.000000    
    330 C     c    0.467283    0.918699    0.970968     0.00000    1.000000    
    331 C     c    0.134038    0.907382    0.157818     0.00000    1.000000    
    332 C     c    0.135106    0.636730    0.444001     0.00000    1.000000    
    333 C     c    0.495209    0.889043    0.536368     0.00000    1.000000    
    334 C     c    0.313602    0.887164    0.555149     0.00000    1.000000    
    335 C     c    0.085058    0.901209    0.991691     0.00000    1.000000    
    336 C     c    0.778246    0.043860    0.231833     0.00000    1.000000    
    337 C     c    0.458793    0.482881    0.842989     0.00000    1.000000    
    338 C     c    0.140781    0.181931    0.462189     0.00000    1.000000    
    339 C     c    0.485720    0.640961    0.874562     0.00000    1.000000    
    340 C     c    0.277412    0.189091    0.982767     0.00000    1.000000    
    341 C     c    0.053786    0.809118    0.938829     0.00000    1.000000    
    342 C     c    0.594638    0.258368    0.162667     0.00000    1.000000    
    343 C     c    0.540354    0.010213    0.751279     0.00000    1.000000    
    344 C     c    0.437731    0.016998    0.721557     0.00000    1.000000    
    345 C     c    0.410601    0.102446    0.672708     0.00000    1.000000    
    346 C     c    0.434391    0.654297    0.657673     0.00000    1.000000    
    347 C     c    0.767190    0.716960    0.037928     0.00000    1.000000    
    348 C     c    0.080210    0.765810    0.262228     0.00000    1.000000    
    349 C     c    0.124361    0.988131    0.687900     0.00000    1.000000    
    350 C     c    0.501661    0.171362    0.037670     0.00000    1.000000    
    351 C     c    0.555003    0.341059    0.857291     0.00000    1.000000    
    352 C     c    0.497896    0.501369    0.634514     0.00000    1.000000    
    353 C     c    0.725300    0.977471    0.751514     0.00000    1.000000    
    354 C     c    0.301310    0.931152    0.395078     0.00000    1.000000    
    355 C     c    0.422519    0.224856    0.975282     0.00000    1.000000    
    356 C     c    0.846042    0.265718    0.340342     0.00000    1.000000    
    357 C     c    0.933405    0.842494    0.202663     0.00000    1.000000    
    358 C     c    0.025971    0.103323    0.836800     0.00000    1.000000    
    359 C     c    0.749447    0.618260    0.156111     0.00000    1.000000    
    360 C     c    0.490436    0.669131    0.230898     0.00000    1.000000    
    361 C     c    0.025282    0.540059    0.221540     0.00000    1.000000    
    362 C     c    0.500542    0.842738    0.113237     0.00000    1.000000    
    363 C     c    0.641486    0.901387    0.188628     0.00000    1.000000    
    364 C     c    0.256510    0.608258    0.362408     0.00000    1.000000    
    365 C     c    0.938122    0.545356    0.977152     0.00000    1.000000    
    366 C     c    0.192050    0.804210    0.485182     0.00000    1.000000    
    367 C     c    0.915604    0.388211    0.210240     0.00000    1.000000    
    368 C     c    0.943923    0.364983    0.930437     0.00000    1.000000    
    369 C     c    0.752798    0.136575    0.666786     0.00000    1.000000    
    370 C     c    0.875401    0.484915    0.622182     0.00000    1.000000    
    371 C     c    0.616020    0.695258    0.090670     0.00000    1.000000    
    372 C     c    0.987874    0.763962    0.761552     0.00000    1.000000    
    373 C     c    0.925372    0.324268    0.634324     0.00000    1.000000    
    374 C     c    0.362190    0.465137    0.414469     0.00000    1.000000    
    375 C     c    0.976795    0.742184    0.283485     0.00000    1.000000    
    376 C     c    0.684621    0.498608    0.602184     0.00000    1.000000    
    377 C     c    0.931552    0.983089    0.302709     0.00000    1.000000    
    378 C     c    0.955628    0.890766    0.114071     0.00000    1.000000    
    379 C     c    0.627714    0.245069    0.670433     0.00000    1.000000    
    380 C     c    0.887662    0.805672    0.607039     0.00000    1.000000    
    381 C     c    0.204502    0.569827    0.203341     0.00000    1.000000    
    382 C     c    0.280099    0.079442    0.834002     0.00000    1.000000    
    383 C     c    0.321127    0.080860    0.098489     0.00000    1.000000    
    384 C     c    0.571772    0.288658    0.523249     0.00000    1.000000    
    385 C     c    0.751656    0.848840    0.261454     0.00000    1.000000    
    386 C     c    0.408544    0.194551    0.338006     0.00000    1.000000    
    387 C     c    0.486609    0.800604    0.476600     0.00000    1.000000    
    388 C     c    0.922363    0.572797    0.303840     0.00000    1.000000    
    389 C     c    0.320227    0.230500    0.290220     0.00000    1.000000    
    390 C     c    0.330873    0.179474    0.065169     0.00000    1.000000    
    391 C     c    0.798342    0.724417    0.290837     0.00000    1.000000    
    392 C     c    0.854994    0.048835    0.560257     0.00000    1.000000    
    393 C     c    0.874031    0.972005    0.639412     0.00000    1.000000    
    394 C     c    0.704183    0.208638    0.442253     0.00000    1.000000    
    395 C     c    0.301981    0.300586    0.714772     0.00000    1.000000    
    396 C     c    0.354219    0.232962    0.656421     0.00000    1.000000    
    397 C     c    0.702761    0.811762    0.177330     0.00000    1.000000    
    398 C     c    0.126998    0.146213    0.828053     0.00000    1.000000    
    399 C     c    0.749963    0.200112    0.756392     0.00000    1.000000    
    400 C     c    0.702228    0.528092    0.190962     0.00000    1.000000    
    401 C     c    0.271219    0.782616    0.151571     0.00000    1.000000    
    402 C     c    0.320752    0.821224    0.854916     0.00000    1.000000    
    403 C     c    0.509328    0.688193    0.058339     0.00000    1.000000    
    404 C     c    0.723189    0.968381    0.468526     0.00000    1.000000    
    405 C     c    0.016356    0.412156    0.874343     0.00000    1.000000    
    406 C     c    0.554742    0.111612    0.492118     0.00000    1.000000    
    407 C     c    0.413030    0.728421    0.189721     0.00000    1.000000    
    408 C     c    0.048328    0.003711    0.876016     0.00000    1.000000    
    409 C     c    0.275993    0.748823    0.048051     0.00000    1.000000    
    410 C     c    0.440781    0.017759    0.992352     0.00000    1.000000    
    411 C     c    0.890513    0.291605    0.802422     0.00000    1.000000    
    412 C     c    0.539924    0.034459    0.128851     0.00000    1.000000    
    413 C     c    0.720991    0.654550    0.440590     0.00000    1.000000    
    414 C     c    0.862128    0.595649    0.034151     0.00000    1.000000    
    415 C     c    0.549568    0.782334    0.799507     0.00000    1.000000    
    416 C     c    0.366021    0.799600    0.728380     0.00000    1.000000    
    417 C     c    0.791121    0.521608    0.328060     0.00000    1.000000    
    418 C     c    0.410008    0.351283    0.532751     0.00000    1.000000    
    419 C     c    0.552952    0.840028    0.202379     0.00000    1.000000    
    420 C     c    0.992665    0.410740    0.273894     0.00000    1.000000    
    421 C     c    0.546250    0.476698    0.905684     0.00000    1.000000    
    422 C     c    0.393138    0.178488    0.743851     0.00000    1.000000    
    423 C     c    0.756624    0.291729    0.396995     0.00000    1.000000    
    424 C     c    0.713072    0.053440    0.327106     0.00000    1.000000    
    425 C     c    0.830529    0.630021    0.337858     0.00000    1.000000    
    426 C     c    0.683889    0.266311    0.284820     0.00000    1.000000    
    427 C     c    0.597348    0.391578    0.388424     0.00000    1.000000    
    428 C     c    0.462460    0.291248    0.372083     0.00000    1.000000    
    429 C     c    0.081687    0.865040    0.316189     0.00000    1.000000    
    430 C     c    0.551378    0.537313    0.716465     0.00000    1.000000    
    431 C     c    0.383437    0.881912    0.792788     0.00000    1.000000    
    432 C     c    0.089477    0.096052    0.442459     0.00000    1.000000    
    433 C     c    0.402441    0.625913    0.751005     0.00000    1.000000    
    434 C     c    0.433373    0.595100    0.499920     0.00000    1.000000    
    435 C     c    0.870118    0.237650    0.643019     0.00000    1.000000    
    436 C     c    0.835821    0.532669    0.431587     0.00000    1.000000    
    437 C     c    0.511352    0.117291    0.201502     0.00000    1.000000    
    438 C     c    0.429749    0.310544    0.039543     0.00000    1.000000    
    439 C     c    0.486318    0.875590    0.798034     0.00000    1.000000    
    440 C     c    0.380826    0.766020    0.445554     0.00000    1.000000    
    441 C     c    0.432338    0.267064    0.133450     0.00000    1.000000    
    442 C     c    0.424818    0.534796    0.100541     0.00000    1.000000    
    443 C     c    0.229790    0.803279    0.323450     0.00000    1.000000    
    444 C     c    0.740108    0.997578    0.923138     0.00000    1.000000    
    445 C     c    0.520426    0.330827    0.968010     0.00000    1.000000    
    446 C     c    0.841638    0.088699    0.994559     0.00000    1.000000    
    447 C     c    0.608489    0.084149    0.238028     0.00000    1.000000    
    448 C     c    0.484413    0.403270    0.224471     0.00000    1.000000    
    449 C     c    0.356414    0.282551    0.206925     0.00000    1.000000    
    450 C     c    0.975924    0.652676    0.344392     0.00000    1.000000    
    451 C     c    0.832392    0.637547    0.453168     0.00000    1.000000    
    452 C     c    0.856105    0.182153    0.141982     0.00000    1.000000    
    453 C     c    0.206943    0.765632    0.969930     0.00000    1.000000    
    454 C     c    0.870275    0.619820    0.821233     0.00000    1.000000    
    455 C     c    0.987541    0.119558    0.425966     0.00000    1.000000    
    456 C     c    0.591358    0.456766    0.546125     0.00000    1.000000    
    457 C     c    0.170160    0.311147    0.216682     0.00000    1.000000    
    458 C     c    0.381603    0.733469    0.346620     0.00000    1.000000    
    459 C     c    0.750258    0.056460    0.530326     0.00000    1.000000    
    460 C     c    0.387370    0.045489    0.510179     0.00000    1.000000    
    461 C     c    0.649507    0.238535    0.064421     0.00000    1.000000    
    462 C     c    0.851711    0.392917    0.671063     0.00000    1.000000    
    463 C     c    0.779621    0.797609    0.107498     0.00000    1.000000    
    464 C     c    0.853804    0.741991    0.537418     0.00000    1.000000    
    465 C     c    0.824907    0.726947    0.187683     0.00000    1.000000    
    466 C     c    0.739271    0.380496    0.464269     0.00000    1.000000    
    467 C     c    0.701722    0.143937    0.051753     0.00000    1.000000    
    468 C     c    0.551334    0.066512    0.396959     0.00000    1.000000    
    469 C     c    0.979854    0.698680    0.111232     0.00000    1.000000    
    470 C     c    0.841039    0.328541    0.261859     0.00000    1.000000    
    471 C     c    0.028361    0.866841    0.520214     0.00000    1.000000    
    472 C     c    0.951384    0.235829    0.351349     0.00000    1.000000    
    473 C     c    0.692520    0.653056    0.243568     0.00000    1.000000    
    474 C     c    0.732121    0.546397    0.723272     0.00000    1.000000    
    475 C     c    0.879972    0.016210    0.390392     0.00000    1.000000    
    476 C     c    0.530057    0.631397    0.482259     0.00000    1.000000    
    477 C     c    0.961030    0.220053    0.459957     0.00000    1.000000    
    478 C     c    0.974701    0.447839    0.786249     0.00000    1.000000    
    479 C     c    0.411910    0.560614    0.275100     0.00000    1.000000    
    480 C     c    0.946618    0.320850    0.128482     0.00000    1.000000    
    481 C     c    0.291109    0.610223    0.164472     0.00000    1.000000    
    482 C     c    0.294252    0.178043    0.590678     0.00000    1.000000    
    483 C     c    0.478172    0.438141    0.539471     0.00000    1.000000    
    484 C     c    0.119885    0.509502    0.706021     0.00000    1.000000    
    485 C     c    0.283738    0.417899    0.102872     0.00000    1.000000    
    486 C     c    0.387309    0.506927    0.919894     0.00000    1.000000    
    487 C     c    0.439969    0.087123    0.902518     0.00000    1.000000    
    488 C     c    0.282439    0.475231    0.497791     0.00000    1.000000    
    489 C     c    0.419201    0.432711    0.661927     0.00000    1.000000    
    490 C     c    0.623230    0.160031    0.883628     0.00000    1.000000    
    491 C     c    0.105457    0.730500    0.992498     0.00000    1.000000    
    492 C     c    0.374528    0.891676    0.026421     0.00000    1.000000    
    493 C     c    0.200076    0.116088    0.986051     0.00000    1.000000    
    494 C     c    0.824598    0.438558    0.077712     0.00000    1.000000    
    495 C     c    0.713828    0.135579    0.833885     0.00000    1.000000    
    496 C     c    0.719775    0.685018    0.611832     0.00000    1.000000    
    497 C     c    0.025793    0.675419    0.444396     0.00000    1.000000    
    498 C     c    0.169713    0.118331    0.289251     0.00000    1.000000    
    499 C     c    0.326552    0.661678    0.955901     0.00000    1.000000    
    500 C     c    0.912108    0.689711    0.036108     0.00000    1.000000    
    501 C     c    0.682085    0.968466    0.374421     0.00000    1.000000    
    502 C     c    0.322318    0.173169    0.819013     0.00000    1.000000    
    503 C     c    0.317285    0.563010    0.748369     0.00000    1.000000    
    504 C     c    0.085832    0.189398    0.922146     0.00000    1.000000    
    505 C     c    0.177968    0.807847    0.177950     0.00000    1.000000    
    506 C     c    0.009902    0.937666    0.802722     0.00000    1.000000    
    507 C     c    0.672990    0.476532    0.104162     0.00000    1.000000    
    508 C     c    0.177653    0.954258    0.780742     0.00000    1.000000    
    509 C     c    0.831588    0.950150    0.464670     0.00000    1.000000    
    510 C     c    0.562941    0.300118    0.336363     0.00000    1.000000    
    511 C     c    0.834200    0.536310    0.761005     0.00000    1.000000    
    512 C     c    0.891650    0.105510    0.756850     0.00000    1.000000    
--------------------------------------------------------------------------------


  Brillouin zone sampling points :

--------------------------------------------------------------------------------
  Point number          x          y          z            Weight
--------------------------------------------------------------------------------
        1           0.500000   0.000000   0.500000     0.00581395
        2           0.473684   0.000000   0.500000     0.00581395
        3           0.447368   0.000000   0.500000     0.00581395
        4           0.421053   0.000000   0.500000     0.00581395
        5           0.394737   0.000000   0.500000     0.00581395
        6           0.368421   0.000000   0.500000     0.00581395
        7           0.342105   0.000000   0.500000     0.00581395
        8           0.315789   0.000000   0.500000     0.00581395
        9           0.289474   0.000000   0.500000     0.00581395
       10           0.263158   0.000000   0.500000     0.00581395
       11           0.236842   0.000000   0.500000     0.00581395
       12           0.210526   0.000000   0.500000     0.00581395
       13           0.184211   0.000000   0.500000     0.00581395
       14           0.157895   0.000000   0.500000     0.00581395
       15           0.131579   0.000000   0.500000     0.00581395
       16           0.105263   0.000000   0.500000     0.00581395
       17           0.078947   0.000000   0.500000     0.00581395
       18           0.052632   0.000000   0.500000     0.00581395
       19           0.026316   0.000000   0.500000     0.00581395
       20           0.000000   0.000000   0.500000     0.00581395
       21           0.000000   0.000000   0.500000     0.00581395
       22           0.000000   0.000000   0.473684     0.00581395
       23           0.000000   0.000000   0.447368     0.00581395
       24           0.000000   0.000000   0.421053     0.00581395
       25           0.000000   0.000000   0.394737     0.00581395
       26           0.000000   0.000000   0.368421     0.00581395
       27           0.000000   0.000000   0.342105     0.00581395
       28           0.000000   0.000000   0.315789     0.00581395
       29           0.000000   0.000000   0.289474     0.00581395
       30           0.000000   0.000000   0.263158     0.00581395
       31           0.000000   0.000000   0.236842     0.00581395
       32           0.000000   0.000000   0.210526     0.00581395
       33           0.000000   0.000000   0.184211     0.00581395
       34           0.000000   0.000000   0.157895     0.00581395
       35           0.000000   0.000000   0.131579     0.00581395
       36           0.000000   0.000000   0.105263     0.00581395
       37           0.000000   0.000000   0.078947     0.00581395
       38           0.000000   0.000000   0.052632     0.00581395
       39           0.000000   0.000000   0.026316     0.00581395
       40           0.000000   0.000000   0.000000     0.00581395
       41           0.000000   0.000000   0.000000     0.00581395
       42           0.026316   0.000000   0.000000     0.00581395
       43           0.052632   0.000000   0.000000     0.00581395
       44           0.078947   0.000000   0.000000     0.00581395
       45           0.105263   0.000000   0.000000     0.00581395
       46           0.131579   0.000000   0.000000     0.00581395
       47           0.157895   0.000000   0.000000     0.00581395
       48           0.184211   0.000000   0.000000     0.00581395
       49           0.210526   0.000000   0.000000     0.00581395
       50           0.236842   0.000000   0.000000     0.00581395
       51           0.263158   0.000000   0.000000     0.00581395
       52           0.289474   0.000000   0.000000     0.00581395
       53           0.315789   0.000000   0.000000     0.00581395
       54           0.342105   0.000000   0.000000     0.00581395
       55           0.368421   0.000000   0.000000     0.00581395
       56           0.394737   0.000000   0.000000     0.00581395
       57           0.421053   0.000000   0.000000     0.00581395
       58           0.447368   0.000000   0.000000     0.00581395
       59           0.473684   0.000000   0.000000     0.00581395
       60           0.500000   0.000000   0.000000     0.00581395
       61           0.500000   0.000000   0.000000     0.00581395
       62           0.500000   0.026316   0.000000     0.00581395
       63           0.500000   0.052632   0.000000     0.00581395
       64           0.500000   0.078947   0.000000     0.00581395
       65           0.500000   0.105263   0.000000     0.00581395
       66           0.500000   0.131579   0.000000     0.00581395
       67           0.500000   0.157895   0.000000     0.00581395
       68           0.500000   0.184211   0.000000     0.00581395
       69           0.500000   0.210526   0.000000     0.00581395
       70           0.500000   0.236842   0.000000     0.00581395
       71           0.500000   0.263158   0.000000     0.00581395
       72           0.500000   0.289474   0.000000     0.00581395
       73           0.500000   0.315789   0.000000     0.00581395
       74           0.500000   0.342105   0.000000     0.00581395
       75           0.500000   0.368421   0.000000     0.00581395
       76           0.500000   0.394737   0.000000     0.00581395
       77           0.500000   0.421053   0.000000     0.00581395
       78           0.500000   0.447368   0.000000     0.00581395
       79           0.500000   0.473684   0.000000     0.00581395
       80           0.500000   0.500000   0.000000     0.00581395
       81           0.500000   0.500000   0.000000     0.00581395
       82           0.500000   0.500000   0.026316     0.00581395
       83           0.500000   0.500000   0.052632     0.00581395
       84           0.500000   0.500000   0.078947     0.00581395
       85           0.500000   0.500000   0.105263     0.00581395
       86           0.500000   0.500000   0.131579     0.00581395
       87           0.500000   0.500000   0.157895     0.00581395
       88           0.500000   0.500000   0.184211     0.00581395
       89           0.500000   0.500000   0.210526     0.00581395
       90           0.500000   0.500000   0.236842     0.00581395
       91           0.500000   0.500000   0.263158     0.00581395
       92           0.500000   0.500000   0.289474     0.00581395
       93           0.500000   0.500000   0.315789     0.00581395
       94           0.500000   0.500000   0.342105     0.00581395
       95           0.500000   0.500000   0.368421     0.00581395
       96           0.500000   0.500000   0.394737     0.00581395
       97           0.500000   0.500000   0.421053     0.00581395
       98           0.500000   0.500000   0.447368     0.00581395
       99           0.500000   0.500000   0.473684     0.00581395
      100           0.500000   0.500000   0.500000     0.00581395
      101           0.500000   0.500000   0.500000     0.00581395
      102           0.473684   0.500000   0.500000     0.00581395
      103           0.447368   0.500000   0.500000     0.00581395
      104           0.421053   0.500000   0.500000     0.00581395
      105           0.394737   0.500000   0.500000     0.00581395
      106           0.368421   0.500000   0.500000     0.00581395
      107           0.342105   0.500000   0.500000     0.00581395
      108           0.315789   0.500000   0.500000     0.00581395
      109           0.289474   0.500000   0.500000     0.00581395
      110           0.263158   0.500000   0.500000     0.00581395
      111           0.236842   0.500000   0.500000     0.00581395
      112           0.210526   0.500000   0.500000     0.00581395
      113           0.184211   0.500000   0.500000     0.00581395
      114           0.157895   0.500000   0.500000     0.00581395
      115           0.131579   0.500000   0.500000     0.00581395
      116           0.105263   0.500000   0.500000     0.00581395
      117           0.078947   0.500000   0.500000     0.00581395
      118           0.052632   0.500000   0.500000     0.00581395
      119           0.026316   0.500000   0.500000     0.00581395
      120           0.000000   0.500000   0.500000     0.00581395
      121           0.000000   0.500000   0.500000     0.00581395
      122           0.000000   0.500000   0.473684     0.00581395
      123           0.000000   0.500000   0.447368     0.00581395
      124           0.000000   0.500000   0.421053     0.00581395
      125           0.000000   0.500000   0.394737     0.00581395
      126           0.000000   0.500000   0.368421     0.00581395
      127           0.000000   0.500000   0.342105     0.00581395
      128           0.000000   0.500000   0.315789     0.00581395
      129           0.000000   0.500000   0.289474     0.00581395
      130           0.000000   0.500000   0.263158     0.00581395
      131           0.000000   0.500000   0.236842     0.00581395
      132           0.000000   0.500000   0.210526     0.00581395
      133           0.000000   0.500000   0.184211     0.00581395
      134           0.000000   0.500000   0.157895     0.00581395
      135           0.000000   0.500000   0.131579     0.00581395
      136           0.000000   0.500000   0.105263     0.00581395
      137           0.000000   0.500000   0.078947     0.00581395
      138           0.000000   0.500000   0.052632     0.00581395
      139           0.000000   0.500000   0.026316     0.00581395
      140           0.000000   0.500000   0.000000     0.00581395
      141           0.125000   0.125000   0.125000     0.00581395
      142           0.125000   0.125000   0.375000     0.00581395
      143           0.125000   0.125000   0.625000     0.00581395
      144           0.125000   0.125000   0.875000     0.00581395
      145           0.125000   0.375000   0.125000     0.00581395
      146           0.125000   0.375000   0.375000     0.00581395
      147           0.125000   0.375000   0.625000     0.00581395
      148           0.125000   0.375000   0.875000     0.00581395
      149           0.125000   0.625000   0.125000     0.00581395
      150           0.125000   0.625000   0.375000     0.00581395
      151           0.125000   0.625000   0.625000     0.00581395
      152           0.125000   0.625000   0.875000     0.00581395
      153           0.125000   0.875000   0.125000     0.00581395
      154           0.125000   0.875000   0.375000     0.00581395
      155           0.125000   0.875000   0.625000     0.00581395
      156           0.125000   0.875000   0.875000     0.00581395
      157           0.375000   0.125000   0.125000     0.00581395
      158           0.375000   0.125000   0.375000     0.00581395
      159           0.375000   0.125000   0.625000     0.00581395
      160           0.375000   0.125000   0.875000     0.00581395
      161           0.375000   0.375000   0.125000     0.00581395
      162           0.375000   0.375000   0.375000     0.00581395
      163           0.375000   0.375000   0.625000     0.00581395
      164           0.375000   0.375000   0.875000     0.00581395
      165           0.375000   0.625000   0.125000     0.00581395
      166           0.375000   0.625000   0.375000     0.00581395
      167           0.375000   0.625000   0.625000     0.00581395
      168           0.375000   0.625000   0.875000     0.00581395
      169           0.375000   0.875000   0.125000     0.00581395
      170           0.375000   0.875000   0.375000     0.00581395
      171           0.375000   0.875000   0.625000     0.00581395
      172           0.375000   0.875000   0.875000     0.00581395
--------------------------------------------------------------------------------


********************************************************************************
*  General input information                                                   *
********************************************************************************

  Species output for all configurations : 

--------------------------------------------------------------------------------
  Species    Type    Atomic    Atomic    Charge       Radii (Angs)     Library
                     Number     Mass       (e)     Cova   Ionic  VDW   Symbol
--------------------------------------------------------------------------------
    C        Core        6      12.01   0.000000   0.770  0.000  1.530          
--------------------------------------------------------------------------------


  Lattice summation method               =    Ewald          (3-D)
                                         =    Parry          (2-D)
                                         =    Saunders et al (1-D)
  Accuracy factor for lattice sums       =   12.000


  Time limit = Infinity

  Maximum range for interatomic potentials =    100000.000000 Angstroms

  Brenner et al 2002 potential to be used with explicit splines for P


********************************************************************************
*  Output for configuration   1                                                *
********************************************************************************


  Components of energy : 

--------------------------------------------------------------------------------
  Interatomic potentials     =           0.00000000 eV    
  Brenner potentials         =       -3361.44718569 eV    
  Monopole - monopole (real) =           0.00000000 eV    
  Monopole - monopole (recip)=           0.00000000 eV    
  Monopole - monopole (total)=           0.00000000 eV    
--------------------------------------------------------------------------------
  Total lattice energy       =       -3361.44718569 eV    
--------------------------------------------------------------------------------
  Total lattice energy       =         -324328.2690 kJ/(mole unit cells)
--------------------------------------------------------------------------------


  Elastic Constant Matrix: (Units=GPa)

-------------------------------------------------------------------------------
  Indices      1         2         3         4         5         6    
-------------------------------------------------------------------------------
       1    547.6719  239.8370  240.5326   -3.5481  -10.5121    8.0117
       2    239.8370  578.3331  274.2677    4.7379    4.1793   17.8848
       3    240.5326  274.2677  552.3792    3.8136  -13.9273   -3.6994
       4     -3.5481    4.7379    3.8136  152.6629    6.8265   -4.0324
       5    -10.5121    4.1793  -13.9273    6.8265  181.6864   -5.0440
       6      8.0117   17.8848   -3.6994   -4.0324   -5.0440  162.2544
-------------------------------------------------------------------------------

  Elastic Constant Tensor Eigenvalues: (Units=GPa)

-------------------------------------------------------------------------------
     1 =   150.1458     2 =   158.9499     3 =   183.6671
     4 =   292.1053     5 =   326.2710     6 =  1063.8488
-------------------------------------------------------------------------------


  Elastic Compliance Matrix: (Units=1/GPa)

-------------------------------------------------------------------------------
  Indices      1         2         3         4         5         6    
-------------------------------------------------------------------------------
       1    0.002442 -0.000665 -0.000732  0.000090  0.000096 -0.000059
       2   -0.000665  0.002459 -0.000937 -0.000068 -0.000172 -0.000267
       3   -0.000732 -0.000937  0.002601 -0.000056  0.000186  0.000203
       4    0.000090 -0.000068 -0.000056  0.006571 -0.000240  0.000158
       5    0.000096 -0.000172  0.000186 -0.000240  0.005542  0.000185
       6   -0.000059 -0.000267  0.000203  0.000158  0.000185  0.006210
-------------------------------------------------------------------------------

  Mechanical properties :

-------------------------------------------------------------------------------
  Convention :                    Reuss         Voigt         Hill
-------------------------------------------------------------------------------
  Bulk  Modulus (GPa)     =     352.86100     354.18431     353.52265
  Shear Modulus (GPa)     =     159.04777     160.90388     159.97583
-------------------------------------------------------------------------------
  Velocity S-wave (km/s)  =       7.02551       7.06639       7.04598
  Velocity P-wave (km/s)  =      13.24065      13.28509      13.26289
-------------------------------------------------------------------------------
  Compressibility (1/GPa) =    0.00283398
-------------------------------------------------------------------------------
  Stress axis :                     x             y             z
-------------------------------------------------------------------------------
  Youngs Moduli (GPa)     =     409.52841     406.59060     384.51974
-------------------------------------------------------------------------------
  Poissons Ratio (x)      =                     0.27051       0.28130
  Poissons Ratio (y)      =       0.27247                     0.36034
  Poissons Ratio (z)      =       0.29959       0.38102
-------------------------------------------------------------------------------


  Piezoelectric Strain Matrix: (Units=C/m**2)

-------------------------------------------------------------------------------
  Indices      1         2         3         4         5         6    
-------------------------------------------------------------------------------
       x    -0.00000  -0.00000  -0.00000  -0.00000  -0.00000  -0.00000
       y    -0.00000  -0.00000  -0.00000  -0.00000  -0.00000  -0.00000
       z    -0.00000  -0.00000  -0.00000  -0.00000  -0.00000  -0.00000
-------------------------------------------------------------------------------


  Piezoelectric Stress Matrix: (Units=10**-11 C/N)

-------------------------------------------------------------------------------
  Indices      1         2         3         4         5         6    
-------------------------------------------------------------------------------
       x     0.00000   0.00000   0.00000   0.00000   0.00000   0.00000
       y     0.00000   0.00000   0.00000   0.00000   0.00000   0.00000
       z     0.00000   0.00000   0.00000   0.00000   0.00000   0.00000
-------------------------------------------------------------------------------


  Static dielectric constant tensor : 

-------------------------------------------------------------------------------
              x         y         z
-------------------------------------------------------------------------------
       x     1.00000   0.00000   0.00000
       y     0.00000   1.00000   0.00000
       z     0.00000   0.00000   1.00000
--------------------------------------------------------------------------------

  Static refractive indices : 

-------------------------------------------------------------------------------
    1 =    1.00000      2 =    1.00000      3 =    1.00000
-------------------------------------------------------------------------------


  Phonon Calculation : 

  K direction for n-a correction at gamma =  1.00000  1.00000  1.00000

  Number of k points for this configuration =      172

--------------------------------------------------------------------------------
  Phonon properties (per mole of unit cells): Temperature =      0.000 K
--------------------------------------------------------------------------------
  Zero point energy            =      101.267685 eV
--------------------------------------------------------------------------------

  Phonon density of states : 

--------------------------------------------------------------------------------
 Frequency (cm-1) Density of States                                             
--------------------------------------------------------------------------------
    0.00000 |                                                              0.000
    2.00000 |                                                              0.000
    4.00000 |                                                              0.000
    6.00000 |                                                              0.000
    8.00000 |                                                              0.000
   10.00000 |                                                              0.000
   12.00000 |                                                              0.000
   14.00000 |                                                              0.000
   16.00000 |                                                              0.000
   18.00000 |                                                              0.000
   20.00000 |                                                              0.000
   22.00000 |                                                              0.000
   24.00000 |                                                              0.000
   26.00000 |                                                              0.000
   28.00000 |                                                              0.000
   30.00000 |                                                              0.000
   32.00000 |*                                                             0.000
   34.00000 |*                                                             0.000
   36.00000 |                                                              0.000
   38.00000 |                                                              0.000
   40.00000 |                                                              0.000
   42.00000 |                                                              0.000
   44.00000 |                                                              0.000
   46.00000 |                                                              0.000
   48.00000 |                                                              0.000
   50.00000 |                                                              0.000
   52.00000 |                                                              0.000
   54.00000 |                                                              0.000
   56.00000 |                                                              0.000
   58.00000 |                                                              0.000
   60.00000 |***                                                           0.000
   62.00000 |**                                                            0.000
   64.00000 |*****                                                         0.000
   66.00000 |***                                                           0.000
   68.00000 |*                                                             0.000
   70.00000 |**                                                            0.000
   72.00000 |*                                                             0.000
   74.00000 |**                                                            0.000
   76.00000 |*                                                             0.000
   78.00000 |*                                                             0.000
   80.00000 |***                                                           0.000
   82.00000 |***                                                           0.000
   84.00000 |****                                                          0.000
   86.00000 |*****                                                         0.000
   88.00000 |**                                                            0.000
   90.00000 |****                                                          0.000
   92.00000 |**                                                            0.000
   94.00000 |**                                                            0.000
   96.00000 |****                                                          0.000
   98.00000 |*                                                             0.000
  100.00000 |**                                                            0.000
  102.00000 |*                                                             0.000
  104.00000 |********                                                      0.000
  106.00000 |***                                                           0.000
  108.00000 |****                                                          0.000
  110.00000 |****                                                          0.000
  112.00000 |******                                                        0.000
  114.00000 |***                                                           0.000
  116.00000 |********                                                      0.000
  118.00000 |***                                                           0.000
  120.00000 |*********                                                     0.000
  122.00000 |******                                                        0.000
  124.00000 |******                                                        0.000
  126.00000 |******                                                        0.000
  128.00000 |********                                                      0.000
  130.00000 |************                                                  0.000
  132.00000 |***                                                           0.000
  134.00000 |******                                                        0.000
  136.00000 |********                                                      0.000
  138.00000 |*********                                                     0.000
  140.00000 |*******                                                       0.000
  142.00000 |*********                                                     0.000
  144.00000 |********                                                      0.000
  146.00000 |*******                                                       0.000
  148.00000 |************                                                  0.000
  150.00000 |*********                                                     0.000
  152.00000 |*********                                                     0.000
  154.00000 |********                                                      0.000
  156.00000 |***********                                                   0.000
  158.00000 |********                                                      0.000
  160.00000 |***********                                                   0.000
  162.00000 |***********                                                   0.000
  164.00000 |*********                                                     0.000
  166.00000 |************                                                  0.000
  168.00000 |************                                                  0.000
  170.00000 |************                                                  0.000
  172.00000 |*************                                                 0.000
  174.00000 |***************                                               0.001
  176.00000 |*********                                                     0.000
  178.00000 |**************                                                0.000
  180.00000 |****************                                              0.001
  182.00000 |************                                                  0.000
  184.00000 |**************                                                0.000
  186.00000 |**************                                                0.000
  188.00000 |***************                                               0.001
  190.00000 |***********                                                   0.000
  192.00000 |*******************                                           0.001
  194.00000 |*****************                                             0.001
  196.00000 |****************                                              0.001
  198.00000 |**************                                                0.000
  200.00000 |*********************                                         0.001
  202.00000 |*******************                                           0.001
  204.00000 |********************                                          0.001
  206.00000 |**************                                                0.000
  208.00000 |******************                                            0.001
  210.00000 |******************                                            0.001
  212.00000 |*******************                                           0.001
  214.00000 |******************                                            0.001
  216.00000 |*******************                                           0.001
  218.00000 |****************                                              0.001
  220.00000 |*********************                                         0.001
  222.00000 |******************                                            0.001
  224.00000 |*************************                                     0.001
  226.00000 |****************                                              0.001
  228.00000 |*************************                                     0.001
  230.00000 |**********************                                        0.001
  232.00000 |**********************                                        0.001
  234.00000 |*********************                                         0.001
  236.00000 |**********************                                        0.001
  238.00000 |*********************                                         0.001
  240.00000 |*************************                                     0.001
  242.00000 |***************************                                   0.001
  244.00000 |*******************                                           0.001
  246.00000 |***************************                                   0.001
  248.00000 |***********************                                       0.001
  250.00000 |*******************                                           0.001
  252.00000 |****************************                                  0.001
  254.00000 |***************************                                   0.001
  256.00000 |************************                                      0.001
  258.00000 |***************************                                   0.001
  260.00000 |************************                                      0.001
  262.00000 |**********************                                        0.001
  264.00000 |************************                                      0.001
  266.00000 |********************************                              0.001
  268.00000 |*************************                                     0.001
  270.00000 |**********************                                        0.001
  272.00000 |****************************                                  0.001
  274.00000 |***************************                                   0.001
  276.00000 |*****************************                                 0.001
  278.00000 |******************************                                0.001
  280.00000 |*************************                                     0.001
  282.00000 |******************************                                0.001
  284.00000 |****************************                                  0.001
  286.00000 |******************************                                0.001
  288.00000 |***********************                                       0.001
  290.00000 |********************************                              0.001
  292.00000 |*****************************                                 0.001
  294.00000 |******************************                                0.001
  296.00000 |******************************                                0.001
  298.00000 |*************************                                     0.001
  300.00000 |*****************************                                 0.001
  302.00000 |*******************************                               0.001
  304.00000 |********************************                              0.001
  306.00000 |**********************************                            0.001
  308.00000 |***************************                                   0.001
  310.00000 |********************************                              0.001
  312.00000 |*********************************                             0.001
  314.00000 |*****************************                                 0.001
  316.00000 |*****************************                                 0.001
  318.00000 |*********************************                             0.001
  320.00000 |**********************************                            0.001
  322.00000 |********************************                              0.001
  324.00000 |*********************************                             0.001
  326.00000 |********************************                              0.001
  328.00000 |**************************************                        0.001
  330.00000 |********************************                              0.001
  332.00000 |**************************************                        0.001
  334.00000 |********************************                              0.001
  336.00000 |******************************                                0.001
  338.00000 |***********************************                           0.001
  340.00000 |********************************                              0.001
  342.00000 |*************************************                         0.001
  344.00000 |********************************                              0.001
  346.00000 |***********************************                           0.001
  348.00000 |**************************************                        0.001
  350.00000 |*********************************                             0.001
  352.00000 |**************************************                        0.001
  354.00000 |***************************************                       0.001
  356.00000 |********************************                              0.001
  358.00000 |***********************************                           0.001
  360.00000 |*************************************                         0.001
  362.00000 |***********************************                           0.001
  364.00000 |**********************************                            0.001
  366.00000 |********************************                              0.001
  368.00000 |**************************************                        0.001
  370.00000 |*********************************                             0.001
  372.00000 |********************************                              0.001
  374.00000 |************************************                          0.001
  376.00000 |*************************************                         0.001
  378.00000 |**********************************                            0.001
  380.00000 |***************************************                       0.001
  382.00000 |*************************************                         0.001
  384.00000 |*************************************                         0.001
  386.00000 |*****************************************                     0.001
  388.00000 |******************************************                    0.001
  390.00000 |****************************************                      0.001
  392.00000 |*****************************************                     0.001
  394.00000 |*************************************                         0.001
  396.00000 |****************************************                      0.001
  398.00000 |************************************                          0.001
  400.00000 |********************************************                  0.001
[...]
 3782.00000 |*******************                                           0.001
 3784.00000 |                                                              0.000
 3786.00000 |                                                              0.000
 3788.00000 |                                                              0.000
 3790.00000 |                                                              0.000
 3792.00000 |                                                              0.000
 3794.00000 |                                                              0.000
 3796.00000 |                                                              0.000
 3798.00000 |                                                              0.000
 3800.00000 |                                                              0.000
 3802.00000 |                                                              0.000
 3804.00000 |                                                              0.000
 3806.00000 |                                                              0.000
 3808.00000 |                                                              0.000
 3810.00000 |                                                              0.000
 3812.00000 |                                                              0.000
 3814.00000 |                                                              0.000
 3816.00000 |                                                              0.000
 3818.00000 |                                                              0.000
 3820.00000 |                                                              0.000
 3822.00000 |                                                              0.000
 3824.00000 |                                                              0.000
 3826.00000 |                                                              0.000
 3828.00000 |                                                              0.000
 3830.00000 |                                                              0.000
 3832.00000 |                                                              0.000
 3834.00000 |                                                              0.000
 3836.00000 |                                                              0.000
 3838.00000 |                                                              0.000
 3840.00000 |                                                              0.000
 3842.00000 |                                                              0.000
 3844.00000 |                                                              0.000
 3846.00000 |                                                              0.000
 3848.00000 |                                                              0.000
 3850.00000 |                                                              0.000
 3852.00000 |                                                              0.000
 3854.00000 |                                                              0.000
 3856.00000 |                                                              0.000
 3858.00000 |*******************                                           0.001
--------------------------------------------------------------------------------




  Phonon density of states written as 10sp2_1175.dens               



  Phonon dispersion curves : 

--------------------------------------------------------------------------------
  Section number =   1
--------------------------------------------------------------------------------
  Frequency (cm-1) Phonon dispersion                                            
--------------------------------------------------------------------------------
  3714.34   |  *  *  *  *  *  *  *  *  *  *  *  *  *  *  *  *  *  *  *  *
  3559.57   |  *  *  *  *  *  *  *  *  *  *  *  *  *  *  *  *  *  *  *  *
  3404.81   |  *  *  *  *  *  *  *  *  *  *  *  *  *  *  *  *  *  *  *  *
  3250.04   |  *  *  *  *  *  *  *  *  *  *  *  *  *  *  *  *  *  *  *  *
  3095.28   |  *  *  *  *  *  *  *  *  *  *  *  *  *  *  *  *  *  *  *  *
  2940.52   |  *  *  *  *  *  *  *  *  *  *  *  *  *  *  *  *  *  *  *  *
  2785.75   |  *  *  *  *  *  *  *  *  *  *  *  *  *  *  *  *  *  *  *  *
  2630.99   |  *  *  *  *  *  *  *  *  *  *  *  *  *  *  *  *  *  *  *  *
  2476.22   |  *  *  *  *  *  *  *  *  *  *  *  *  *  *  *  *  *  *  *  *
  2321.46   |  *  *  *  *  *  *  *  *  *  *  *  *  *  *  *  *  *  *  *  *
  2166.70   |  *  *  *  *  *  *  *  *  *  *  *  *  *  *  *  *  *  *  *  *
  2011.93   |  *  *  *  *  *  *  *  *  *  *  *  *  *  *  *  *  *  *  *  *
  1857.17   |  *  *  *  *  *  *  *  *  *  *  *  *  *  *  *  *  *  *  *  *
  1702.40   |  *  *  *  *  *  *  *  *  *  *  *  *  *  *  *  *  *  *  *  *
  1547.64   |  *  *  *  *  *  *  *  *  *  *  *  *  *  *  *  *  *  *  *  *
  1392.88   |  *  *  *  *  *  *  *  *  *  *  *  *  *  *  *  *  *  *  *  *
  1238.11   |  *  *  *  *  *  *  *  *  *  *  *  *  *  *  *  *  *  *  *  *
  1083.35   |  *  *  *  *  *  *  *  *  *  *  *  *  *  *  *  *  *  *  *  *
   928.58   |  *  *  *  *  *  *  *  *  *  *  *  *  *  *  *  *  *  *  *  *
   773.82   |  *  *  *  *  *  *  *  *  *  *  *  *  *  *  *  *  *  *  *  *
   619.06   |  *  *  *  *  *  *  *  *  *  *  *  *  *  *  *  *  *  *  *  *
   464.29   |  *  *  *  *  *  *  *  *  *  *  *  *  *  *  *  *  *  *  *  *
   309.53   |  *  *  *  *  *  *  *  *  *  *  *  *  *  *  *  *  *  *  *  *
   154.76   |  *  *  *  *  *  *  *  *  *  *  *  *  *  *  *  *  *  *  *  *
     0.00   |  *  *  *  *  *  *  *  *  *  *  *  *  *  *  *  *  *  *  *  *
--------------------------------------------------------------------------------
  Section number =   2
--------------------------------------------------------------------------------
  Frequency (cm-1) Phonon dispersion                                            
--------------------------------------------------------------------------------
  3714.34   |  *  *  *  *  *  *  *  *  *  *  *  *  *  *  *  *  *  *  *  *
  3559.57   |  *  *  *  *  *  *  *  *  *  *  *  *  *  *  *  *  *  *  *  *
  3404.81   |  *  *  *  *  *  *  *  *  *  *  *  *  *  *  *  *  *  *  *  *
  3250.04   |  *  *  *  *  *  *  *  *  *  *  *  *  *  *  *  *  *  *  *  *
  3095.28   |  *  *  *  *  *  *  *  *  *  *  *  *  *  *  *  *  *  *  *  *
  2940.52   |  *  *  *  *  *  *  *  *  *  *  *  *  *  *  *  *  *  *  *  *
  2785.75   |  *  *  *  *  *  *  *  *  *  *  *  *  *  *  *  *  *  *  *  *
  2630.99   |  *  *  *  *  *  *  *  *  *  *  *  *  *  *  *  *  *  *  *  *
  2476.22   |  *  *  *  *  *  *  *  *  *  *  *  *  *  *  *  *  *  *  *  *
  2321.46   |  *  *  *  *  *  *  *  *  *  *  *  *  *  *  *  *  *  *  *  *
  2166.70   |  *  *  *  *  *  *  *  *  *  *  *  *  *  *  *  *  *  *  *  *
  2011.93   |  *  *  *  *  *  *  *  *  *  *  *  *  *  *  *  *  *  *  *  *
  1857.17   |  *  *  *  *  *  *  *  *  *  *  *  *  *  *  *  *  *  *  *  *
  1702.40   |  *  *  *  *  *  *  *  *  *  *  *  *  *  *  *  *  *  *  *  *
  1547.64   |  *  *  *  *  *  *  *  *  *  *  *  *  *  *  *  *  *  *  *  *
  1392.88   |  *  *  *  *  *  *  *  *  *  *  *  *  *  *  *  *  *  *  *  *
  1238.11   |  *  *  *  *  *  *  *  *  *  *  *  *  *  *  *  *  *  *  *  *
  1083.35   |  *  *  *  *  *  *  *  *  *  *  *  *  *  *  *  *  *  *  *  *
   928.58   |  *  *  *  *  *  *  *  *  *  *  *  *  *  *  *  *  *  *  *  *
   773.82   |  *  *  *  *  *  *  *  *  *  *  *  *  *  *  *  *  *  *  *  *
   619.06   |  *  *  *  *  *  *  *  *  *  *  *  *  *  *  *  *  *  *  *  *
   464.29   |  *  *  *  *  *  *  *  *  *  *  *  *  *  *  *  *  *  *  *  *
   309.53   |  *  *  *  *  *  *  *  *  *  *  *  *  *  *  *  *  *  *  *  *
   154.76   |  *  *  *  *  *  *  *  *  *  *  *  *  *  *  *  *  *  *  *  *
     0.00   |  *  *  *  *  *  *  *  *  *  *  *  *  *  *  *  *  *  *  *  *
--------------------------------------------------------------------------------
  Section number =   3
--------------------------------------------------------------------------------
  Frequency (cm-1) Phonon dispersion                                            
--------------------------------------------------------------------------------
  3714.34   |  *  *  *  *  *  *  *  *  *  *  *  *  *  *  *  *  *  *  *  *
  3559.57   |  *  *  *  *  *  *  *  *  *  *  *  *  *  *  *  *  *  *  *  *
  3404.81   |  *  *  *  *  *  *  *  *  *  *  *  *  *  *  *  *  *  *  *  *
  3250.04   |  *  *  *  *  *  *  *  *  *  *  *  *  *  *  *  *  *  *  *  *
  3095.28   |  *  *  *  *  *  *  *  *  *  *  *  *  *  *  *  *  *  *  *  *
  2940.52   |  *  *  *  *  *  *  *  *  *  *  *  *  *  *  *  *  *  *  *  *
  2785.75   |  *  *  *  *  *  *  *  *  *  *  *  *  *  *  *  *  *  *  *  *
  2630.99   |  *  *  *  *  *  *  *  *  *  *  *  *  *  *  *  *  *  *  *  *
  2476.22   |  *  *  *  *  *  *  *  *  *  *  *  *  *  *  *  *  *  *  *  *
  2321.46   |  *  *  *  *  *  *  *  *  *  *  *  *  *  *  *  *  *  *  *  *
  2166.70   |  *  *  *  *  *  *  *  *  *  *  *  *  *  *  *  *  *  *  *  *
  2011.93   |  *  *  *  *  *  *  *  *  *  *  *  *  *  *  *  *  *  *  *  *
  1857.17   |  *  *  *  *  *  *  *  *  *  *  *  *  *  *  *  *  *  *  *  *
  1702.40   |  *  *  *  *  *  *  *  *  *  *  *  *  *  *  *  *  *  *  *  *
  1547.64   |  *  *  *  *  *  *  *  *  *  *  *  *  *  *  *  *  *  *  *  *
  1392.88   |  *  *  *  *  *  *  *  *  *  *  *  *  *  *  *  *  *  *  *  *
  1238.11   |  *  *  *  *  *  *  *  *  *  *  *  *  *  *  *  *  *  *  *  *
  1083.35   |  *  *  *  *  *  *  *  *  *  *  *  *  *  *  *  *  *  *  *  *
   928.58   |  *  *  *  *  *  *  *  *  *  *  *  *  *  *  *  *  *  *  *  *
   773.82   |  *  *  *  *  *  *  *  *  *  *  *  *  *  *  *  *  *  *  *  *
   619.06   |  *  *  *  *  *  *  *  *  *  *  *  *  *  *  *  *  *  *  *  *
   464.29   |  *  *  *  *  *  *  *  *  *  *  *  *  *  *  *  *  *  *  *  *
   309.53   |  *  *  *  *  *  *  *  *  *  *  *  *  *  *  *  *  *  *  *  *
   154.76   |  *  *  *  *  *  *  *  *  *  *  *  *  *  *  *  *  *  *  *  *
     0.00   |  *  *  *  *  *  *  *  *  *  *  *  *  *  *  *  *  *  *  *  *
--------------------------------------------------------------------------------
  Section number =   4
--------------------------------------------------------------------------------
  Frequency (cm-1) Phonon dispersion                                            
--------------------------------------------------------------------------------
  3714.34   |  *  *  *  *  *  *  *  *  *  *  *  *  *  *  *  *  *  *  *  *
  3559.57   |  *  *  *  *  *  *  *  *  *  *  *  *  *  *  *  *  *  *  *  *
  3404.81   |  *  *  *  *  *  *  *  *  *  *  *  *  *  *  *  *  *  *  *  *
  3250.04   |  *  *  *  *  *  *  *  *  *  *  *  *  *  *  *  *  *  *  *  *
  3095.28   |  *  *  *  *  *  *  *  *  *  *  *  *  *  *  *  *  *  *  *  *
  2940.52   |  *  *  *  *  *  *  *  *  *  *  *  *  *  *  *  *  *  *  *  *
  2785.75   |  *  *  *  *  *  *  *  *  *  *  *  *  *  *  *  *  *  *  *  *
  2630.99   |  *  *  *  *  *  *  *  *  *  *  *  *  *  *  *  *  *  *  *  *
  2476.22   |  *  *  *  *  *  *  *  *  *  *  *  *  *  *  *  *  *  *  *  *
  2321.46   |  *  *  *  *  *  *  *  *  *  *  *  *  *  *  *  *  *  *  *  *
  2166.70   |  *  *  *  *  *  *  *  *  *  *  *  *  *  *  *  *  *  *  *  *
  2011.93   |  *  *  *  *  *  *  *  *  *  *  *  *  *  *  *  *  *  *  *  *
  1857.17   |  *  *  *  *  *  *  *  *  *  *  *  *  *  *  *  *  *  *  *  *
  1702.40   |  *  *  *  *  *  *  *  *  *  *  *  *  *  *  *  *  *  *  *  *
  1547.64   |  *  *  *  *  *  *  *  *  *  *  *  *  *  *  *  *  *  *  *  *
  1392.88   |  *  *  *  *  *  *  *  *  *  *  *  *  *  *  *  *  *  *  *  *
  1238.11   |  *  *  *  *  *  *  *  *  *  *  *  *  *  *  *  *  *  *  *  *
  1083.35   |  *  *  *  *  *  *  *  *  *  *  *  *  *  *  *  *  *  *  *  *
   928.58   |  *  *  *  *  *  *  *  *  *  *  *  *  *  *  *  *  *  *  *  *
   773.82   |  *  *  *  *  *  *  *  *  *  *  *  *  *  *  *  *  *  *  *  *
   619.06   |  *  *  *  *  *  *  *  *  *  *  *  *  *  *  *  *  *  *  *  *
   464.29   |  *  *  *  *  *  *  *  *  *  *  *  *  *  *  *  *  *  *  *  *
   309.53   |  *  *  *  *  *  *  *  *  *  *  *  *  *  *  *  *  *  *  *  *
   154.76   |  *  *  *  *  *  *  *  *  *  *  *  *  *  *  *  *  *  *  *  *
     0.00   |  *  *  *  *  *  *  *  *  *  *  *  *  *  *  *  *  *  *  *  *
--------------------------------------------------------------------------------
  Section number =   5
--------------------------------------------------------------------------------
  Frequency (cm-1) Phonon dispersion                                            
--------------------------------------------------------------------------------
  3714.34   |  *  *  *  *  *  *  *  *  *  *  *  *  *  *  *  *  *  *  *  *
  3559.57   |  *  *  *  *  *  *  *  *  *  *  *  *  *  *  *  *  *  *  *  *
  3404.81   |  *  *  *  *  *  *  *  *  *  *  *  *  *  *  *  *  *  *  *  *
  3250.04   |  *  *  *  *  *  *  *  *  *  *  *  *  *  *  *  *  *  *  *  *
  3095.28   |  *  *  *  *  *  *  *  *  *  *  *  *  *  *  *  *  *  *  *  *
  2940.52   |  *  *  *  *  *  *  *  *  *  *  *  *  *  *  *  *  *  *  *  *
  2785.75   |  *  *  *  *  *  *  *  *  *  *  *  *  *  *  *  *  *  *  *  *
  2630.99   |  *  *  *  *  *  *  *  *  *  *  *  *  *  *  *  *  *  *  *  *
  2476.22   |  *  *  *  *  *  *  *  *  *  *  *  *  *  *  *  *  *  *  *  *
  2321.46   |  *  *  *  *  *  *  *  *  *  *  *  *  *  *  *  *  *  *  *  *
  2166.70   |  *  *  *  *  *  *  *  *  *  *  *  *  *  *  *  *  *  *  *  *
  2011.93   |  *  *  *  *  *  *  *  *  *  *  *  *  *  *  *  *  *  *  *  *
  1857.17   |  *  *  *  *  *  *  *  *  *  *  *  *  *  *  *  *  *  *  *  *
  1702.40   |  *  *  *  *  *  *  *  *  *  *  *  *  *  *  *  *  *  *  *  *
  1547.64   |  *  *  *  *  *  *  *  *  *  *  *  *  *  *  *  *  *  *  *  *
  1392.88   |  *  *  *  *  *  *  *  *  *  *  *  *  *  *  *  *  *  *  *  *
  1238.11   |  *  *  *  *  *  *  *  *  *  *  *  *  *  *  *  *  *  *  *  *
  1083.35   |  *  *  *  *  *  *  *  *  *  *  *  *  *  *  *  *  *  *  *  *
   928.58   |  *  *  *  *  *  *  *  *  *  *  *  *  *  *  *  *  *  *  *  *
   773.82   |  *  *  *  *  *  *  *  *  *  *  *  *  *  *  *  *  *  *  *  *
   619.06   |  *  *  *  *  *  *  *  *  *  *  *  *  *  *  *  *  *  *  *  *
   464.29   |  *  *  *  *  *  *  *  *  *  *  *  *  *  *  *  *  *  *  *  *
   309.53   |  *  *  *  *  *  *  *  *  *  *  *  *  *  *  *  *  *  *  *  *
   154.76   |  *  *  *  *  *  *  *  *  *  *  *  *  *  *  *  *  *  *  *  *
     0.00   |  *  *  *  *  *  *  *  *  *  *  *  *  *  *  *  *  *  *  *  *
--------------------------------------------------------------------------------
  Section number =   6
--------------------------------------------------------------------------------
  Frequency (cm-1) Phonon dispersion                                            
--------------------------------------------------------------------------------
  3714.34   |  *  *  *  *  *  *  *  *  *  *  *  *  *  *  *  *  *  *  *  *
  3559.57   |  *  *  *  *  *  *  *  *  *  *  *  *  *  *  *  *  *  *  *  *
  3404.81   |  *  *  *  *  *  *  *  *  *  *  *  *  *  *  *  *  *  *  *  *
  3250.04   |  *  *  *  *  *  *  *  *  *  *  *  *  *  *  *  *  *  *  *  *
  3095.28   |  *  *  *  *  *  *  *  *  *  *  *  *  *  *  *  *  *  *  *  *
  2940.52   |  *  *  *  *  *  *  *  *  *  *  *  *  *  *  *  *  *  *  *  *
  2785.75   |  *  *  *  *  *  *  *  *  *  *  *  *  *  *  *  *  *  *  *  *
  2630.99   |  *  *  *  *  *  *  *  *  *  *  *  *  *  *  *  *  *  *  *  *
  2476.22   |  *  *  *  *  *  *  *  *  *  *  *  *  *  *  *  *  *  *  *  *
  2321.46   |  *  *  *  *  *  *  *  *  *  *  *  *  *  *  *  *  *  *  *  *
  2166.70   |  *  *  *  *  *  *  *  *  *  *  *  *  *  *  *  *  *  *  *  *
  2011.93   |  *  *  *  *  *  *  *  *  *  *  *  *  *  *  *  *  *  *  *  *
  1857.17   |  *  *  *  *  *  *  *  *  *  *  *  *  *  *  *  *  *  *  *  *
  1702.40   |  *  *  *  *  *  *  *  *  *  *  *  *  *  *  *  *  *  *  *  *
  1547.64   |  *  *  *  *  *  *  *  *  *  *  *  *  *  *  *  *  *  *  *  *
  1392.88   |  *  *  *  *  *  *  *  *  *  *  *  *  *  *  *  *  *  *  *  *
  1238.11   |  *  *  *  *  *  *  *  *  *  *  *  *  *  *  *  *  *  *  *  *
  1083.35   |  *  *  *  *  *  *  *  *  *  *  *  *  *  *  *  *  *  *  *  *
   928.58   |  *  *  *  *  *  *  *  *  *  *  *  *  *  *  *  *  *  *  *  *
   773.82   |  *  *  *  *  *  *  *  *  *  *  *  *  *  *  *  *  *  *  *  *
   619.06   |  *  *  *  *  *  *  *  *  *  *  *  *  *  *  *  *  *  *  *  *
   464.29   |  *  *  *  *  *  *  *  *  *  *  *  *  *  *  *  *  *  *  *  *
   309.53   |  *  *  *  *  *  *  *  *  *  *  *  *  *  *  *  *  *  *  *  *
   154.76   |  *  *  *  *  *  *  *  *  *  *  *  *  *  *  *  *  *  *  *  *
     0.00   |  *  *  *  *  *  *  *  *  *  *  *  *  *  *  *  *  *  *  *  *
--------------------------------------------------------------------------------
  Section number =   7
--------------------------------------------------------------------------------
  Frequency (cm-1) Phonon dispersion                                            
--------------------------------------------------------------------------------
  3714.34   |  *  *  *  *  *  *  *  *  *  *  *  *  *  *  *  *  *  *  *  *
  3559.57   |  *  *  *  *  *  *  *  *  *  *  *  *  *  *  *  *  *  *  *  *
  3404.81   |  *  *  *  *  *  *  *  *  *  *  *  *  *  *  *  *  *  *  *  *
  3250.04   |  *  *  *  *  *  *  *  *  *  *  *  *  *  *  *  *  *  *  *  *
  3095.28   |  *  *  *  *  *  *  *  *  *  *  *  *  *  *  *  *  *  *  *  *
  2940.52   |  *  *  *  *  *  *  *  *  *  *  *  *  *  *  *  *  *  *  *  *
  2785.75   |  *  *  *  *  *  *  *  *  *  *  *  *  *  *  *  *  *  *  *  *
  2630.99   |  *  *  *  *  *  *  *  *  *  *  *  *  *  *  *  *  *  *  *  *
  2476.22   |  *  *  *  *  *  *  *  *  *  *  *  *  *  *  *  *  *  *  *  *
  2321.46   |  *  *  *  *  *  *  *  *  *  *  *  *  *  *  *  *  *  *  *  *
  2166.70   |  *  *  *  *  *  *  *  *  *  *  *  *  *  *  *  *  *  *  *  *
  2011.93   |  *  *  *  *  *  *  *  *  *  *  *  *  *  *  *  *  *  *  *  *
  1857.17   |  *  *  *  *  *  *  *  *  *  *  *  *  *  *  *  *  *  *  *  *
  1702.40   |  *  *  *  *  *  *  *  *  *  *  *  *  *  *  *  *  *  *  *  *
  1547.64   |  *  *  *  *  *  *  *  *  *  *  *  *  *  *  *  *  *  *  *  *
  1392.88   |  *  *  *  *  *  *  *  *  *  *  *  *  *  *  *  *  *  *  *  *
  1238.11   |  *  *  *  *  *  *  *  *  *  *  *  *  *  *  *  *  *  *  *  *
  1083.35   |  *  *  *  *  *  *  *  *  *  *  *  *  *  *  *  *  *  *  *  *
   928.58   |  *  *  *  *  *  *  *  *  *  *  *  *  *  *  *  *  *  *  *  *
   773.82   |  *  *  *  *  *  *  *  *  *  *  *  *  *  *  *  *  *  *  *  *
   619.06   |  *  *  *  *  *  *  *  *  *  *  *  *  *  *  *  *  *  *  *  *
   464.29   |  *  *  *  *  *  *  *  *  *  *  *  *  *  *  *  *  *  *  *  *
   309.53   |  *  *  *  *  *  *  *  *  *  *  *  *  *  *  *  *  *  *  *  *
   154.76   |  *  *  *  *  *  *  *  *  *  *  *  *  *  *  *  *  *  *  *  *
     0.00   |  *  *  *  *  *  *  *  *  *  *  *  *  *  *  *  *  *  *  *  *
--------------------------------------------------------------------------------


  Phonon dispersion written as 10sp2_1175.disp               

  Time to end of properties =   10945.0995 seconds


  Peak dynamic memory used =       9.67 MB 


  Timing analysis for GULP :

--------------------------------------------------------------------------------
  Task / Subroutine                                          Time (Seconds)
--------------------------------------------------------------------------------
  Calculation of real space energy and derivatives                0.0859
  Calculation of Brenner energy and derivatives                1500.3222
  Calculation of phonons                                      10839.1849
  Disk read/write operations to scratch files                     0.0001
  Global summation overhead                                     192.7203
--------------------------------------------------------------------------------
  Total CPU time                                              10945.1001
--------------------------------------------------------------------------------


  Job Finished at 13:19.34 22nd April      2021                               

