********************************************************************************
*                       GENERAL UTILITY LATTICE PROGRAM                        *
*                                 Julian Gale                                  *
*                       Curtin Institute for Computation                       *
*                    School of Molecular and Life Sciences                     *
*                    Curtin University, Western Australia                      *
********************************************************************************
* Version = 5.2.0 * Last modified =  17th December 2019                        *
********************************************************************************
*  single       - perform a single point run                                   *
*  property     - calculate properties for final geometry                      *
*  phonon       - calculate phonons for final geometry                         *
********************************************************************************
* ASE calculation                                                              *
********************************************************************************


  Job Started  at 13:01.40 31st July       2020                               

  Number of CPUs =     1


  Total number of configurations input =      1

********************************************************************************
*  Input for Configuration =   1                                               *
********************************************************************************

  Formula = C8                                                          

  Number of irreducible atoms/shells =       8


  Total number atoms/shells =       8

  Dimensionality = 3               :  Bulk   



  Cartesian lattice vectors (Angstroms) :

        3.578900    0.000000    0.000000
        0.000000    3.578900    0.000000
        0.000000    0.000000    3.578900

  Cell parameters (Angstroms/Degrees):

  a =       3.5789    alpha =  90.0000
  b =       3.5789    beta  =  90.0000
  c =       3.5789    gamma =  90.0000

  Initial cell volume =          45.840431 Angs**3

  Shrinking factors =      8     8     8

  Temperature of configuration =   10.0     K 

  Pressure of configuration =         0.000 GPa 

  Fractional coordinates of asymmetric unit :

--------------------------------------------------------------------------------
   No.  Atomic       x           y          z         Charge      Occupancy
        Label      (Frac)      (Frac)     (Frac)        (e)         (Frac)  
--------------------------------------------------------------------------------
      1 C     c    0.000000    0.000000    0.000000     0.00000    1.000000    
      2 C     c    0.000000    0.500000    0.500000     0.00000    1.000000    
      3 C     c    0.500000    0.500000    0.000000     0.00000    1.000000    
      4 C     c    0.500000    0.000000    0.500000     0.00000    1.000000    
      5 C     c    0.750000    0.250000    0.750000     0.00000    1.000000    
      6 C     c    0.250000    0.250000    0.250000     0.00000    1.000000    
      7 C     c    0.250000    0.750000    0.750000     0.00000    1.000000    
      8 C     c    0.750000    0.750000    0.250000     0.00000    1.000000    
--------------------------------------------------------------------------------


  Brillouin zone sampling points :

--------------------------------------------------------------------------------
  Point number          x          y          z            Weight
--------------------------------------------------------------------------------
        1           0.062500   0.062500   0.062500     0.00390625
        2           0.062500   0.062500   0.187500     0.00390625
        3           0.062500   0.062500   0.312500     0.00390625
        4           0.062500   0.062500   0.437500     0.00390625
        5           0.062500   0.062500   0.562500     0.00390625
        6           0.062500   0.062500   0.687500     0.00390625
        7           0.062500   0.062500   0.812500     0.00390625
        8           0.062500   0.062500   0.937500     0.00390625
        9           0.062500   0.187500   0.062500     0.00390625
       10           0.062500   0.187500   0.187500     0.00390625
       11           0.062500   0.187500   0.312500     0.00390625
       12           0.062500   0.187500   0.437500     0.00390625
       13           0.062500   0.187500   0.562500     0.00390625
       14           0.062500   0.187500   0.687500     0.00390625
       15           0.062500   0.187500   0.812500     0.00390625
       16           0.062500   0.187500   0.937500     0.00390625
       17           0.062500   0.312500   0.062500     0.00390625
       18           0.062500   0.312500   0.187500     0.00390625
       19           0.062500   0.312500   0.312500     0.00390625
       20           0.062500   0.312500   0.437500     0.00390625
       21           0.062500   0.312500   0.562500     0.00390625
       22           0.062500   0.312500   0.687500     0.00390625
       23           0.062500   0.312500   0.812500     0.00390625
       24           0.062500   0.312500   0.937500     0.00390625
       25           0.062500   0.437500   0.062500     0.00390625
       26           0.062500   0.437500   0.187500     0.00390625
       27           0.062500   0.437500   0.312500     0.00390625
       28           0.062500   0.437500   0.437500     0.00390625
       29           0.062500   0.437500   0.562500     0.00390625
       30           0.062500   0.437500   0.687500     0.00390625
       31           0.062500   0.437500   0.812500     0.00390625
       32           0.062500   0.437500   0.937500     0.00390625
       33           0.062500   0.562500   0.062500     0.00390625
       34           0.062500   0.562500   0.187500     0.00390625
       35           0.062500   0.562500   0.312500     0.00390625
       36           0.062500   0.562500   0.437500     0.00390625
       37           0.062500   0.562500   0.562500     0.00390625
       38           0.062500   0.562500   0.687500     0.00390625
       39           0.062500   0.562500   0.812500     0.00390625
       40           0.062500   0.562500   0.937500     0.00390625
       41           0.062500   0.687500   0.062500     0.00390625
       42           0.062500   0.687500   0.187500     0.00390625
       43           0.062500   0.687500   0.312500     0.00390625
       44           0.062500   0.687500   0.437500     0.00390625
       45           0.062500   0.687500   0.562500     0.00390625
       46           0.062500   0.687500   0.687500     0.00390625
       47           0.062500   0.687500   0.812500     0.00390625
       48           0.062500   0.687500   0.937500     0.00390625
       49           0.062500   0.812500   0.062500     0.00390625
       50           0.062500   0.812500   0.187500     0.00390625
       51           0.062500   0.812500   0.312500     0.00390625
       52           0.062500   0.812500   0.437500     0.00390625
       53           0.062500   0.812500   0.562500     0.00390625
       54           0.062500   0.812500   0.687500     0.00390625
       55           0.062500   0.812500   0.812500     0.00390625
       56           0.062500   0.812500   0.937500     0.00390625
       57           0.062500   0.937500   0.062500     0.00390625
       58           0.062500   0.937500   0.187500     0.00390625
       59           0.062500   0.937500   0.312500     0.00390625
       60           0.062500   0.937500   0.437500     0.00390625
       61           0.062500   0.937500   0.562500     0.00390625
       62           0.062500   0.937500   0.687500     0.00390625
       63           0.062500   0.937500   0.812500     0.00390625
       64           0.062500   0.937500   0.937500     0.00390625
       65           0.187500   0.062500   0.062500     0.00390625
       66           0.187500   0.062500   0.187500     0.00390625
       67           0.187500   0.062500   0.312500     0.00390625
       68           0.187500   0.062500   0.437500     0.00390625
       69           0.187500   0.062500   0.562500     0.00390625
       70           0.187500   0.062500   0.687500     0.00390625
       71           0.187500   0.062500   0.812500     0.00390625
       72           0.187500   0.062500   0.937500     0.00390625
       73           0.187500   0.187500   0.062500     0.00390625
       74           0.187500   0.187500   0.187500     0.00390625
       75           0.187500   0.187500   0.312500     0.00390625
       76           0.187500   0.187500   0.437500     0.00390625
       77           0.187500   0.187500   0.562500     0.00390625
       78           0.187500   0.187500   0.687500     0.00390625
       79           0.187500   0.187500   0.812500     0.00390625
       80           0.187500   0.187500   0.937500     0.00390625
       81           0.187500   0.312500   0.062500     0.00390625
       82           0.187500   0.312500   0.187500     0.00390625
       83           0.187500   0.312500   0.312500     0.00390625
       84           0.187500   0.312500   0.437500     0.00390625
       85           0.187500   0.312500   0.562500     0.00390625
       86           0.187500   0.312500   0.687500     0.00390625
       87           0.187500   0.312500   0.812500     0.00390625
       88           0.187500   0.312500   0.937500     0.00390625
       89           0.187500   0.437500   0.062500     0.00390625
       90           0.187500   0.437500   0.187500     0.00390625
       91           0.187500   0.437500   0.312500     0.00390625
       92           0.187500   0.437500   0.437500     0.00390625
       93           0.187500   0.437500   0.562500     0.00390625
       94           0.187500   0.437500   0.687500     0.00390625
       95           0.187500   0.437500   0.812500     0.00390625
       96           0.187500   0.437500   0.937500     0.00390625
       97           0.187500   0.562500   0.062500     0.00390625
       98           0.187500   0.562500   0.187500     0.00390625
       99           0.187500   0.562500   0.312500     0.00390625
      100           0.187500   0.562500   0.437500     0.00390625
      101           0.187500   0.562500   0.562500     0.00390625
      102           0.187500   0.562500   0.687500     0.00390625
      103           0.187500   0.562500   0.812500     0.00390625
      104           0.187500   0.562500   0.937500     0.00390625
      105           0.187500   0.687500   0.062500     0.00390625
      106           0.187500   0.687500   0.187500     0.00390625
      107           0.187500   0.687500   0.312500     0.00390625
      108           0.187500   0.687500   0.437500     0.00390625
      109           0.187500   0.687500   0.562500     0.00390625
      110           0.187500   0.687500   0.687500     0.00390625
      111           0.187500   0.687500   0.812500     0.00390625
      112           0.187500   0.687500   0.937500     0.00390625
      113           0.187500   0.812500   0.062500     0.00390625
      114           0.187500   0.812500   0.187500     0.00390625
      115           0.187500   0.812500   0.312500     0.00390625
      116           0.187500   0.812500   0.437500     0.00390625
      117           0.187500   0.812500   0.562500     0.00390625
      118           0.187500   0.812500   0.687500     0.00390625
      119           0.187500   0.812500   0.812500     0.00390625
      120           0.187500   0.812500   0.937500     0.00390625
      121           0.187500   0.937500   0.062500     0.00390625
      122           0.187500   0.937500   0.187500     0.00390625
      123           0.187500   0.937500   0.312500     0.00390625
      124           0.187500   0.937500   0.437500     0.00390625
      125           0.187500   0.937500   0.562500     0.00390625
      126           0.187500   0.937500   0.687500     0.00390625
      127           0.187500   0.937500   0.812500     0.00390625
      128           0.187500   0.937500   0.937500     0.00390625
      129           0.312500   0.062500   0.062500     0.00390625
      130           0.312500   0.062500   0.187500     0.00390625
      131           0.312500   0.062500   0.312500     0.00390625
      132           0.312500   0.062500   0.437500     0.00390625
      133           0.312500   0.062500   0.562500     0.00390625
      134           0.312500   0.062500   0.687500     0.00390625
      135           0.312500   0.062500   0.812500     0.00390625
      136           0.312500   0.062500   0.937500     0.00390625
      137           0.312500   0.187500   0.062500     0.00390625
      138           0.312500   0.187500   0.187500     0.00390625
      139           0.312500   0.187500   0.312500     0.00390625
      140           0.312500   0.187500   0.437500     0.00390625
      141           0.312500   0.187500   0.562500     0.00390625
      142           0.312500   0.187500   0.687500     0.00390625
      143           0.312500   0.187500   0.812500     0.00390625
      144           0.312500   0.187500   0.937500     0.00390625
      145           0.312500   0.312500   0.062500     0.00390625
      146           0.312500   0.312500   0.187500     0.00390625
      147           0.312500   0.312500   0.312500     0.00390625
      148           0.312500   0.312500   0.437500     0.00390625
      149           0.312500   0.312500   0.562500     0.00390625
      150           0.312500   0.312500   0.687500     0.00390625
      151           0.312500   0.312500   0.812500     0.00390625
      152           0.312500   0.312500   0.937500     0.00390625
      153           0.312500   0.437500   0.062500     0.00390625
      154           0.312500   0.437500   0.187500     0.00390625
      155           0.312500   0.437500   0.312500     0.00390625
      156           0.312500   0.437500   0.437500     0.00390625
      157           0.312500   0.437500   0.562500     0.00390625
      158           0.312500   0.437500   0.687500     0.00390625
      159           0.312500   0.437500   0.812500     0.00390625
      160           0.312500   0.437500   0.937500     0.00390625
      161           0.312500   0.562500   0.062500     0.00390625
      162           0.312500   0.562500   0.187500     0.00390625
      163           0.312500   0.562500   0.312500     0.00390625
      164           0.312500   0.562500   0.437500     0.00390625
      165           0.312500   0.562500   0.562500     0.00390625
      166           0.312500   0.562500   0.687500     0.00390625
      167           0.312500   0.562500   0.812500     0.00390625
      168           0.312500   0.562500   0.937500     0.00390625
      169           0.312500   0.687500   0.062500     0.00390625
      170           0.312500   0.687500   0.187500     0.00390625
      171           0.312500   0.687500   0.312500     0.00390625
      172           0.312500   0.687500   0.437500     0.00390625
      173           0.312500   0.687500   0.562500     0.00390625
      174           0.312500   0.687500   0.687500     0.00390625
      175           0.312500   0.687500   0.812500     0.00390625
      176           0.312500   0.687500   0.937500     0.00390625
      177           0.312500   0.812500   0.062500     0.00390625
      178           0.312500   0.812500   0.187500     0.00390625
      179           0.312500   0.812500   0.312500     0.00390625
      180           0.312500   0.812500   0.437500     0.00390625
      181           0.312500   0.812500   0.562500     0.00390625
      182           0.312500   0.812500   0.687500     0.00390625
      183           0.312500   0.812500   0.812500     0.00390625
      184           0.312500   0.812500   0.937500     0.00390625
      185           0.312500   0.937500   0.062500     0.00390625
      186           0.312500   0.937500   0.187500     0.00390625
      187           0.312500   0.937500   0.312500     0.00390625
      188           0.312500   0.937500   0.437500     0.00390625
      189           0.312500   0.937500   0.562500     0.00390625
      190           0.312500   0.937500   0.687500     0.00390625
      191           0.312500   0.937500   0.812500     0.00390625
      192           0.312500   0.937500   0.937500     0.00390625
      193           0.437500   0.062500   0.062500     0.00390625
      194           0.437500   0.062500   0.187500     0.00390625
      195           0.437500   0.062500   0.312500     0.00390625
      196           0.437500   0.062500   0.437500     0.00390625
      197           0.437500   0.062500   0.562500     0.00390625
      198           0.437500   0.062500   0.687500     0.00390625
      199           0.437500   0.062500   0.812500     0.00390625
      200           0.437500   0.062500   0.937500     0.00390625
      201           0.437500   0.187500   0.062500     0.00390625
      202           0.437500   0.187500   0.187500     0.00390625
      203           0.437500   0.187500   0.312500     0.00390625
      204           0.437500   0.187500   0.437500     0.00390625
      205           0.437500   0.187500   0.562500     0.00390625
      206           0.437500   0.187500   0.687500     0.00390625
      207           0.437500   0.187500   0.812500     0.00390625
      208           0.437500   0.187500   0.937500     0.00390625
      209           0.437500   0.312500   0.062500     0.00390625
      210           0.437500   0.312500   0.187500     0.00390625
      211           0.437500   0.312500   0.312500     0.00390625
      212           0.437500   0.312500   0.437500     0.00390625
      213           0.437500   0.312500   0.562500     0.00390625
      214           0.437500   0.312500   0.687500     0.00390625
      215           0.437500   0.312500   0.812500     0.00390625
      216           0.437500   0.312500   0.937500     0.00390625
      217           0.437500   0.437500   0.062500     0.00390625
      218           0.437500   0.437500   0.187500     0.00390625
      219           0.437500   0.437500   0.312500     0.00390625
      220           0.437500   0.437500   0.437500     0.00390625
      221           0.437500   0.437500   0.562500     0.00390625
      222           0.437500   0.437500   0.687500     0.00390625
      223           0.437500   0.437500   0.812500     0.00390625
      224           0.437500   0.437500   0.937500     0.00390625
      225           0.437500   0.562500   0.062500     0.00390625
      226           0.437500   0.562500   0.187500     0.00390625
      227           0.437500   0.562500   0.312500     0.00390625
      228           0.437500   0.562500   0.437500     0.00390625
      229           0.437500   0.562500   0.562500     0.00390625
      230           0.437500   0.562500   0.687500     0.00390625
      231           0.437500   0.562500   0.812500     0.00390625
      232           0.437500   0.562500   0.937500     0.00390625
      233           0.437500   0.687500   0.062500     0.00390625
      234           0.437500   0.687500   0.187500     0.00390625
      235           0.437500   0.687500   0.312500     0.00390625
      236           0.437500   0.687500   0.437500     0.00390625
      237           0.437500   0.687500   0.562500     0.00390625
      238           0.437500   0.687500   0.687500     0.00390625
      239           0.437500   0.687500   0.812500     0.00390625
      240           0.437500   0.687500   0.937500     0.00390625
      241           0.437500   0.812500   0.062500     0.00390625
      242           0.437500   0.812500   0.187500     0.00390625
      243           0.437500   0.812500   0.312500     0.00390625
      244           0.437500   0.812500   0.437500     0.00390625
      245           0.437500   0.812500   0.562500     0.00390625
      246           0.437500   0.812500   0.687500     0.00390625
      247           0.437500   0.812500   0.812500     0.00390625
      248           0.437500   0.812500   0.937500     0.00390625
      249           0.437500   0.937500   0.062500     0.00390625
      250           0.437500   0.937500   0.187500     0.00390625
      251           0.437500   0.937500   0.312500     0.00390625
      252           0.437500   0.937500   0.437500     0.00390625
      253           0.437500   0.937500   0.562500     0.00390625
      254           0.437500   0.937500   0.687500     0.00390625
      255           0.437500   0.937500   0.812500     0.00390625
      256           0.437500   0.937500   0.937500     0.00390625
--------------------------------------------------------------------------------


********************************************************************************
*  General input information                                                   *
********************************************************************************

  Species output for all configurations : 

--------------------------------------------------------------------------------
  Species    Type    Atomic    Atomic    Charge       Radii (Angs)     Library
                     Number     Mass       (e)     Cova   Ionic  VDW   Symbol
--------------------------------------------------------------------------------
    C        Core        6      12.01   0.000000   0.770  0.000  1.530          
--------------------------------------------------------------------------------


  Lattice summation method               =    Ewald          (3-D)
                                         =    Parry          (2-D)
                                         =    Saunders et al (1-D)
  Accuracy factor for lattice sums       =   12.000


  Analytic derivatives to be used

  Time limit = Infinity

  Maximum range for interatomic potentials =    100000.000000 Angstroms

  Brenner et al 2002 potential to be used with explicit splines for P


********************************************************************************
*  Output for configuration   1                                                *
********************************************************************************


  Components of energy : 

--------------------------------------------------------------------------------
  Interatomic potentials     =           0.00000000 eV    
  Brenner potentials         =         -58.95035735 eV    
  Monopole - monopole (real) =           0.00000000 eV    
  Monopole - monopole (recip)=           0.00000000 eV    
  Monopole - monopole (total)=           0.00000000 eV    
--------------------------------------------------------------------------------
  Total lattice energy       =         -58.95035735 eV    
--------------------------------------------------------------------------------
  Total lattice energy       =           -5687.8083 kJ/(mole unit cells)
--------------------------------------------------------------------------------


  Elastic Constant Matrix: (Units=GPa)

-------------------------------------------------------------------------------
  Indices      1         2         3         4         5         6    
-------------------------------------------------------------------------------
       1   1045.1820  114.0283  114.0283   -0.0000   -0.0000   -0.0000
       2    114.0283 1045.1820  114.0283   -0.0000   -0.0000   -0.0000
       3    114.0283  114.0283 1045.1820   -0.0000   -0.0000   -0.0000
       4     -0.0000   -0.0000   -0.0000  698.6185    0.0000    0.0000
       5     -0.0000   -0.0000   -0.0000    0.0000  698.6185    0.0000
       6     -0.0000   -0.0000   -0.0000    0.0000    0.0000  698.6185
-------------------------------------------------------------------------------


  Elastic Compliance Matrix: (Units=1/GPa)

-------------------------------------------------------------------------------
  Indices      1         2         3         4         5         6    
-------------------------------------------------------------------------------
       1    0.000978 -0.000096 -0.000096  0.000000  0.000000  0.000000
       2   -0.000096  0.000978 -0.000096  0.000000  0.000000  0.000000
       3   -0.000096 -0.000096  0.000978  0.000000  0.000000  0.000000
       4    0.000000  0.000000  0.000000  0.001431 -0.000000 -0.000000
       5    0.000000  0.000000  0.000000 -0.000000  0.001431 -0.000000
       6    0.000000  0.000000  0.000000 -0.000000 -0.000000  0.001431
-------------------------------------------------------------------------------

  Mechanical properties :

-------------------------------------------------------------------------------
  Convention :                    Reuss         Voigt         Hill
-------------------------------------------------------------------------------
  Bulk  Modulus (GPa)     =     424.41290     424.41290     424.41290
  Shear Modulus (GPa)     =     582.07654     605.40183     593.73918
-------------------------------------------------------------------------------
  Velocity S-wave (km/s)  =      12.93213      13.18869      13.06104
  Velocity P-wave (km/s)  =      18.57221      18.81124      18.69211
-------------------------------------------------------------------------------
  Compressibility (1/GPa) =    0.00235620
-------------------------------------------------------------------------------
  Stress axis :                     x             y             z
-------------------------------------------------------------------------------
  Youngs Moduli (GPa)     =    1022.74872    1022.74872    1022.74872
-------------------------------------------------------------------------------
  Poissons Ratio (x)      =                     0.09837       0.09837
  Poissons Ratio (y)      =       0.09837                     0.09837
  Poissons Ratio (z)      =       0.09837       0.09837
-------------------------------------------------------------------------------


  Piezoelectric Strain Matrix: (Units=C/m**2)

-------------------------------------------------------------------------------
  Indices      1         2         3         4         5         6    
-------------------------------------------------------------------------------
       x    -0.00000  -0.00000  -0.00000  -0.00000  -0.00000  -0.00000
       y    -0.00000  -0.00000  -0.00000  -0.00000  -0.00000  -0.00000
       z    -0.00000  -0.00000  -0.00000  -0.00000  -0.00000  -0.00000
-------------------------------------------------------------------------------


  Piezoelectric Stress Matrix: (Units=10**-11 C/N)

-------------------------------------------------------------------------------
  Indices      1         2         3         4         5         6    
-------------------------------------------------------------------------------
       x     0.00000   0.00000   0.00000   0.00000   0.00000   0.00000
       y     0.00000   0.00000   0.00000   0.00000   0.00000   0.00000
       z     0.00000   0.00000   0.00000   0.00000   0.00000   0.00000
-------------------------------------------------------------------------------


  Static dielectric constant tensor : 

-------------------------------------------------------------------------------
              x         y         z
-------------------------------------------------------------------------------
       x     1.00000   0.00000   0.00000
       y     0.00000   1.00000   0.00000
       z     0.00000   0.00000   1.00000
--------------------------------------------------------------------------------

  Static refractive indices : 

-------------------------------------------------------------------------------
    1 =    1.00000      2 =    1.00000      3 =    1.00000
-------------------------------------------------------------------------------


  Phonon Calculation : 

  Number of k points for this configuration =      256

--------------------------------------------------------------------------------
  K point      1 =   0.062500  0.062500  0.062500  Weight =    0.004
--------------------------------------------------------------------------------

  Frequencies (cm-1) [NB: Negative implies an imaginary mode]:

  125.64  125.64  197.95 1044.77 1044.77 1044.77 1057.00 1057.00 1057.00
 1200.21 1200.21 1200.21 1243.62 1243.62 1243.62 1269.29 1269.29 1269.29
 1334.82 1334.82 1334.82 1547.09 1547.09 1551.43


--------------------------------------------------------------------------------
  K point      2 =   0.062500  0.062500  0.187500  Weight =    0.004
--------------------------------------------------------------------------------

  Frequencies (cm-1) [NB: Negative implies an imaginary mode]:

  246.41  262.52  355.08  957.15  965.65 1037.22 1037.22 1071.56 1071.56
 1117.60 1154.74 1154.74 1228.56 1228.56 1301.78 1301.78 1305.60 1312.59
 1351.76 1351.76 1401.00 1534.95 1535.51 1547.86


--------------------------------------------------------------------------------
  K point      3 =   0.062500  0.062500  0.312500  Weight =    0.004
--------------------------------------------------------------------------------

  Frequencies (cm-1) [NB: Negative implies an imaginary mode]:

  403.65  414.71  526.62  839.80  844.96  994.45 1037.02 1037.02 1085.49
 1085.49 1112.15 1112.15 1204.75 1204.75 1331.93 1331.93 1368.47 1368.47
 1372.32 1376.84 1454.17 1512.25 1512.30 1538.02


--------------------------------------------------------------------------------
  K point      4 =   0.062500  0.062500  0.437500  Weight =    0.004
--------------------------------------------------------------------------------

  Frequencies (cm-1) [NB: Negative implies an imaginary mode]:

  560.10  564.64  694.52  707.45  708.41  851.95 1045.50 1045.50 1076.17
 1076.17 1099.42 1099.42 1188.25 1188.25 1348.66 1348.66 1377.66 1377.66
 1430.38 1433.20 1477.20 1478.48 1493.39 1520.56


--------------------------------------------------------------------------------
  K point      5 =   0.062500  0.062500  0.562500  Weight =    0.004
--------------------------------------------------------------------------------

  Frequencies (cm-1) [NB: Negative implies an imaginary mode]:

  560.10  564.64  694.52  707.45  708.41  851.95 1045.50 1045.50 1076.17
 1076.17 1099.42 1099.42 1188.25 1188.25 1348.66 1348.66 1377.66 1377.66
 1430.38 1433.20 1477.20 1478.48 1493.39 1520.56


--------------------------------------------------------------------------------
  K point      6 =   0.062500  0.062500  0.687500  Weight =    0.004
--------------------------------------------------------------------------------

  Frequencies (cm-1) [NB: Negative implies an imaginary mode]:

  403.65  414.71  526.62  839.80  844.96  994.45 1037.02 1037.02 1085.49
 1085.49 1112.15 1112.15 1204.75 1204.75 1331.93 1331.93 1368.47 1368.47
 1372.32 1376.84 1454.17 1512.25 1512.30 1538.02


--------------------------------------------------------------------------------
  K point      7 =   0.062500  0.062500  0.812500  Weight =    0.004
--------------------------------------------------------------------------------

  Frequencies (cm-1) [NB: Negative implies an imaginary mode]:

  246.41  262.52  355.08  957.15  965.65 1037.22 1037.22 1071.56 1071.56
 1117.60 1154.74 1154.74 1228.56 1228.56 1301.78 1301.78 1305.60 1312.59
 1351.76 1351.76 1401.00 1534.95 1535.51 1547.86


--------------------------------------------------------------------------------
  K point      8 =   0.062500  0.062500  0.937500  Weight =    0.004
--------------------------------------------------------------------------------

  Frequencies (cm-1) [NB: Negative implies an imaginary mode]:

  125.64  125.64  197.95 1044.77 1044.77 1044.77 1057.00 1057.00 1057.00
 1200.21 1200.21 1200.21 1243.62 1243.62 1243.62 1269.29 1269.29 1269.29
 1334.82 1334.82 1334.82 1547.09 1547.09 1551.43


--------------------------------------------------------------------------------
  K point      9 =   0.062500  0.187500  0.062500  Weight =    0.004
--------------------------------------------------------------------------------

  Frequencies (cm-1) [NB: Negative implies an imaginary mode]:

  246.41  262.52  355.08  957.15  965.65 1037.22 1037.22 1071.56 1071.56
 1117.60 1154.74 1154.74 1228.56 1228.56 1301.78 1301.78 1305.60 1312.59
 1351.76 1351.76 1401.00 1534.95 1535.51 1547.86


--------------------------------------------------------------------------------
  K point     10 =   0.062500  0.187500  0.187500  Weight =    0.004
--------------------------------------------------------------------------------

  Frequencies (cm-1) [NB: Negative implies an imaginary mode]:

  294.57  345.84  474.31  954.95  954.95  980.41  980.41 1002.54 1092.94
 1095.01 1095.01 1127.50 1260.65 1271.43 1298.99 1298.99 1336.22 1336.22
 1380.02 1396.64 1396.64 1521.03 1524.91 1545.42


--------------------------------------------------------------------------------
  K point     11 =   0.062500  0.187500  0.312500  Weight =    0.004
--------------------------------------------------------------------------------

  Frequencies (cm-1) [NB: Negative implies an imaginary mode]:

  411.12  471.38  614.79  836.28  865.61  955.81  975.22 1000.24 1000.25
 1074.77 1077.42 1114.89 1246.85 1285.20 1304.06 1364.04 1365.29 1387.63
 1388.62 1398.87 1443.93 1497.62 1504.33 1534.78


--------------------------------------------------------------------------------
  K point     12 =   0.062500  0.187500  0.437500  Weight =    0.004
--------------------------------------------------------------------------------

  Frequencies (cm-1) [NB: Negative implies an imaginary mode]:

  553.75  606.52  699.23  739.76  754.37  884.60  956.10  960.06 1023.03
 1048.81 1075.99 1095.94 1251.16 1267.61 1337.77 1362.76 1394.96 1403.76
 1420.73 1435.09 1464.63 1474.19 1483.95 1514.42


--------------------------------------------------------------------------------
  K point     13 =   0.062500  0.187500  0.562500  Weight =    0.004
--------------------------------------------------------------------------------

  Frequencies (cm-1) [NB: Negative implies an imaginary mode]:

  553.75  606.52  699.23  739.76  754.37  884.60  956.10  960.06 1023.03
 1048.81 1075.99 1095.94 1251.16 1267.61 1337.77 1362.76 1394.96 1403.76
 1420.73 1435.09 1464.63 1474.19 1483.95 1514.42


--------------------------------------------------------------------------------
  K point     14 =   0.062500  0.187500  0.687500  Weight =    0.004
--------------------------------------------------------------------------------

  Frequencies (cm-1) [NB: Negative implies an imaginary mode]:

  411.12  471.38  614.79  836.28  865.61  955.81  975.22 1000.24 1000.25
 1074.77 1077.42 1114.89 1246.85 1285.20 1304.06 1364.04 1365.29 1387.63
 1388.62 1398.87 1443.93 1497.62 1504.33 1534.78


--------------------------------------------------------------------------------
  K point     15 =   0.062500  0.187500  0.812500  Weight =    0.004
--------------------------------------------------------------------------------

  Frequencies (cm-1) [NB: Negative implies an imaginary mode]:

  294.57  345.84  474.31  954.95  954.95  980.41  980.41 1002.54 1092.94
 1095.01 1095.01 1127.50 1260.65 1271.43 1298.99 1298.99 1336.22 1336.22
 1380.02 1396.64 1396.64 1521.03 1524.91 1545.42


--------------------------------------------------------------------------------
  K point     16 =   0.062500  0.187500  0.937500  Weight =    0.004
--------------------------------------------------------------------------------

  Frequencies (cm-1) [NB: Negative implies an imaginary mode]:

  246.41  262.52  355.08  957.15  965.65 1037.22 1037.22 1071.56 1071.56
 1117.60 1154.74 1154.74 1228.56 1228.56 1301.78 1301.78 1305.60 1312.59
 1351.76 1351.76 1401.00 1534.95 1535.51 1547.86


--------------------------------------------------------------------------------
  K point     17 =   0.062500  0.312500  0.062500  Weight =    0.004
--------------------------------------------------------------------------------

  Frequencies (cm-1) [NB: Negative implies an imaginary mode]:

  403.65  414.71  526.62  839.80  844.96  994.45 1037.02 1037.02 1085.49
 1085.49 1112.15 1112.15 1204.75 1204.75 1331.93 1331.93 1368.47 1368.47
 1372.32 1376.84 1454.17 1512.25 1512.30 1538.02


--------------------------------------------------------------------------------
  K point     18 =   0.062500  0.312500  0.187500  Weight =    0.004
--------------------------------------------------------------------------------

  Frequencies (cm-1) [NB: Negative implies an imaginary mode]:

  411.12  471.38  614.79  836.28  865.61  955.81  975.22 1000.24 1000.25
 1074.77 1077.42 1114.89 1246.85 1285.20 1304.06 1364.04 1365.29 1387.63
 1388.62 1398.87 1443.93 1497.62 1504.33 1534.78


--------------------------------------------------------------------------------
  K point     19 =   0.062500  0.312500  0.312500  Weight =    0.004
--------------------------------------------------------------------------------

  Frequencies (cm-1) [NB: Negative implies an imaginary mode]:

  472.69  568.62  723.41  834.70  834.70  904.40  904.40  917.00 1012.84
 1012.84 1043.62 1098.92 1297.67 1301.57 1351.59 1351.59 1403.93 1403.93
 1418.04 1423.25 1423.25 1473.68 1488.67 1522.67


--------------------------------------------------------------------------------
  K point     20 =   0.062500  0.312500  0.437500  Weight =    0.004
--------------------------------------------------------------------------------

  Frequencies (cm-1) [NB: Negative implies an imaginary mode]:

  578.22  681.63  704.38  796.41  831.45  844.51  871.79  929.84  953.57
 1002.61 1033.72 1064.40 1313.04 1333.05 1350.34 1391.88 1402.72 1418.20
 1424.11 1437.44 1442.35 1464.41 1465.94 1499.15


--------------------------------------------------------------------------------
  K point     21 =   0.062500  0.312500  0.562500  Weight =    0.004
--------------------------------------------------------------------------------

  Frequencies (cm-1) [NB: Negative implies an imaginary mode]:

  578.22  681.63  704.38  796.41  831.45  844.51  871.79  929.84  953.57
 1002.61 1033.72 1064.40 1313.04 1333.05 1350.34 1391.88 1402.72 1418.20
 1424.11 1437.44 1442.35 1464.41 1465.94 1499.15


--------------------------------------------------------------------------------
  K point     22 =   0.062500  0.312500  0.687500  Weight =    0.004
--------------------------------------------------------------------------------

  Frequencies (cm-1) [NB: Negative implies an imaginary mode]:

  472.69  568.62  723.41  834.70  834.70  904.40  904.40  917.00 1012.84
 1012.84 1043.62 1098.92 1297.67 1301.57 1351.59 1351.59 1403.93 1403.93
 1418.04 1423.25 1423.25 1473.68 1488.67 1522.67


--------------------------------------------------------------------------------
  K point     23 =   0.062500  0.312500  0.812500  Weight =    0.004
--------------------------------------------------------------------------------

  Frequencies (cm-1) [NB: Negative implies an imaginary mode]:

  411.12  471.38  614.79  836.28  865.61  955.81  975.22 1000.24 1000.25
 1074.77 1077.42 1114.89 1246.85 1285.20 1304.06 1364.04 1365.29 1387.63
 1388.62 1398.87 1443.93 1497.62 1504.33 1534.78


--------------------------------------------------------------------------------
  K point     24 =   0.062500  0.312500  0.937500  Weight =    0.004
--------------------------------------------------------------------------------

  Frequencies (cm-1) [NB: Negative implies an imaginary mode]:

  403.65  414.71  526.62  839.80  844.96  994.45 1037.02 1037.02 1085.49
 1085.49 1112.15 1112.15 1204.75 1204.75 1331.93 1331.93 1368.47 1368.47
 1372.32 1376.84 1454.17 1512.25 1512.30 1538.02


--------------------------------------------------------------------------------
  K point     25 =   0.062500  0.437500  0.062500  Weight =    0.004
--------------------------------------------------------------------------------

  Frequencies (cm-1) [NB: Negative implies an imaginary mode]:

  560.10  564.64  694.52  707.45  708.41  851.95 1045.50 1045.50 1076.17
 1076.17 1099.42 1099.42 1188.25 1188.25 1348.66 1348.66 1377.66 1377.66
 1430.38 1433.20 1477.20 1478.48 1493.39 1520.56


--------------------------------------------------------------------------------
  K point     26 =   0.062500  0.437500  0.187500  Weight =    0.004
--------------------------------------------------------------------------------

  Frequencies (cm-1) [NB: Negative implies an imaginary mode]:

  553.75  606.52  699.23  739.76  754.37  884.60  956.10  960.06 1023.03
 1048.81 1075.99 1095.94 1251.16 1267.61 1337.77 1362.76 1394.96 1403.76
 1420.73 1435.09 1464.63 1474.19 1483.95 1514.42


--------------------------------------------------------------------------------
  K point     27 =   0.062500  0.437500  0.312500  Weight =    0.004
--------------------------------------------------------------------------------

  Frequencies (cm-1) [NB: Negative implies an imaginary mode]:

  578.22  681.63  704.38  796.41  831.45  844.51  871.79  929.84  953.57
 1002.61 1033.72 1064.40 1313.04 1333.05 1350.34 1391.88 1402.72 1418.20
 1424.11 1437.44 1442.35 1464.41 1465.94 1499.15


--------------------------------------------------------------------------------
  K point     28 =   0.062500  0.437500  0.437500  Weight =    0.004
--------------------------------------------------------------------------------

  Frequencies (cm-1) [NB: Negative implies an imaginary mode]:

  642.30  735.71  735.71  772.91  793.74  867.08  867.08  908.01  939.70
  976.72  976.72 1022.05 1351.43 1378.93 1378.93 1389.26 1413.61 1429.10
 1429.10 1436.06 1442.21 1442.21 1452.68 1473.07


--------------------------------------------------------------------------------
  K point     29 =   0.062500  0.437500  0.562500  Weight =    0.004
--------------------------------------------------------------------------------

  Frequencies (cm-1) [NB: Negative implies an imaginary mode]:

  642.30  735.71  735.71  772.91  793.74  867.08  867.08  908.01  939.70
  976.72  976.72 1022.05 1351.43 1378.93 1378.93 1389.26 1413.61 1429.10
 1429.10 1436.06 1442.21 1442.21 1452.68 1473.07


--------------------------------------------------------------------------------
  K point     30 =   0.062500  0.437500  0.687500  Weight =    0.004
--------------------------------------------------------------------------------

  Frequencies (cm-1) [NB: Negative implies an imaginary mode]:

  578.22  681.63  704.38  796.41  831.45  844.51  871.79  929.84  953.57
 1002.61 1033.72 1064.40 1313.04 1333.05 1350.34 1391.88 1402.72 1418.20
 1424.11 1437.44 1442.35 1464.41 1465.94 1499.15


--------------------------------------------------------------------------------
  K point     31 =   0.062500  0.437500  0.812500  Weight =    0.004
--------------------------------------------------------------------------------

  Frequencies (cm-1) [NB: Negative implies an imaginary mode]:

  553.75  606.52  699.23  739.76  754.37  884.60  956.10  960.06 1023.03
 1048.81 1075.99 1095.94 1251.16 1267.61 1337.77 1362.76 1394.96 1403.76
 1420.73 1435.09 1464.63 1474.19 1483.95 1514.42


--------------------------------------------------------------------------------
  K point     32 =   0.062500  0.437500  0.937500  Weight =    0.004
--------------------------------------------------------------------------------

  Frequencies (cm-1) [NB: Negative implies an imaginary mode]:

  560.10  564.64  694.52  707.45  708.41  851.95 1045.50 1045.50 1076.17
 1076.17 1099.42 1099.42 1188.25 1188.25 1348.66 1348.66 1377.66 1377.66
 1430.38 1433.20 1477.20 1478.48 1493.39 1520.56


--------------------------------------------------------------------------------
  K point     33 =   0.062500  0.562500  0.062500  Weight =    0.004
--------------------------------------------------------------------------------

  Frequencies (cm-1) [NB: Negative implies an imaginary mode]:

  560.10  564.64  694.52  707.45  708.41  851.95 1045.50 1045.50 1076.17
 1076.17 1099.42 1099.42 1188.25 1188.25 1348.66 1348.66 1377.66 1377.66
 1430.38 1433.20 1477.20 1478.48 1493.39 1520.56


--------------------------------------------------------------------------------
  K point     34 =   0.062500  0.562500  0.187500  Weight =    0.004
--------------------------------------------------------------------------------

  Frequencies (cm-1) [NB: Negative implies an imaginary mode]:

  553.75  606.52  699.23  739.76  754.37  884.60  956.10  960.06 1023.03
 1048.81 1075.99 1095.94 1251.16 1267.61 1337.77 1362.76 1394.96 1403.76
 1420.73 1435.09 1464.63 1474.19 1483.95 1514.42


--------------------------------------------------------------------------------
  K point     35 =   0.062500  0.562500  0.312500  Weight =    0.004
--------------------------------------------------------------------------------

  Frequencies (cm-1) [NB: Negative implies an imaginary mode]:

  578.22  681.63  704.38  796.41  831.45  844.51  871.79  929.84  953.57
 1002.61 1033.72 1064.40 1313.04 1333.05 1350.34 1391.88 1402.72 1418.20
 1424.11 1437.44 1442.35 1464.41 1465.94 1499.15


--------------------------------------------------------------------------------
  K point     36 =   0.062500  0.562500  0.437500  Weight =    0.004
--------------------------------------------------------------------------------

  Frequencies (cm-1) [NB: Negative implies an imaginary mode]:

  642.30  735.71  735.71  772.91  793.74  867.08  867.08  908.01  939.70
  976.72  976.72 1022.05 1351.43 1378.93 1378.93 1389.26 1413.61 1429.10
 1429.10 1436.06 1442.21 1442.21 1452.68 1473.07


--------------------------------------------------------------------------------
  K point     37 =   0.062500  0.562500  0.562500  Weight =    0.004
--------------------------------------------------------------------------------

  Frequencies (cm-1) [NB: Negative implies an imaginary mode]:

  642.30  735.71  735.71  772.91  793.74  867.08  867.08  908.01  939.70
  976.72  976.72 1022.05 1351.43 1378.93 1378.93 1389.26 1413.61 1429.10
 1429.10 1436.06 1442.21 1442.21 1452.68 1473.07


--------------------------------------------------------------------------------
  K point     38 =   0.062500  0.562500  0.687500  Weight =    0.004
--------------------------------------------------------------------------------

  Frequencies (cm-1) [NB: Negative implies an imaginary mode]:

  578.22  681.63  704.38  796.41  831.45  844.51  871.79  929.84  953.57
 1002.61 1033.72 1064.40 1313.04 1333.05 1350.34 1391.88 1402.72 1418.20
 1424.11 1437.44 1442.35 1464.41 1465.94 1499.15


--------------------------------------------------------------------------------
  K point     39 =   0.062500  0.562500  0.812500  Weight =    0.004
--------------------------------------------------------------------------------

  Frequencies (cm-1) [NB: Negative implies an imaginary mode]:

  553.75  606.52  699.23  739.76  754.37  884.60  956.10  960.06 1023.03
 1048.81 1075.99 1095.94 1251.16 1267.61 1337.77 1362.76 1394.96 1403.76
 1420.73 1435.09 1464.63 1474.19 1483.95 1514.42


--------------------------------------------------------------------------------
  K point     40 =   0.062500  0.562500  0.937500  Weight =    0.004
--------------------------------------------------------------------------------

  Frequencies (cm-1) [NB: Negative implies an imaginary mode]:

  560.10  564.64  694.52  707.45  708.41  851.95 1045.50 1045.50 1076.17
 1076.17 1099.42 1099.42 1188.25 1188.25 1348.66 1348.66 1377.66 1377.66
 1430.38 1433.20 1477.20 1478.48 1493.39 1520.56


--------------------------------------------------------------------------------
  K point     41 =   0.062500  0.687500  0.062500  Weight =    0.004
--------------------------------------------------------------------------------

  Frequencies (cm-1) [NB: Negative implies an imaginary mode]:

  403.65  414.71  526.62  839.80  844.96  994.45 1037.02 1037.02 1085.49
 1085.49 1112.15 1112.15 1204.75 1204.75 1331.93 1331.93 1368.47 1368.47
 1372.32 1376.84 1454.17 1512.25 1512.30 1538.02


--------------------------------------------------------------------------------
  K point     42 =   0.062500  0.687500  0.187500  Weight =    0.004
--------------------------------------------------------------------------------

  Frequencies (cm-1) [NB: Negative implies an imaginary mode]:

  411.12  471.38  614.79  836.28  865.61  955.81  975.22 1000.24 1000.25
 1074.77 1077.42 1114.89 1246.85 1285.20 1304.06 1364.04 1365.29 1387.63
 1388.62 1398.87 1443.93 1497.62 1504.33 1534.78


--------------------------------------------------------------------------------
  K point     43 =   0.062500  0.687500  0.312500  Weight =    0.004
--------------------------------------------------------------------------------

  Frequencies (cm-1) [NB: Negative implies an imaginary mode]:

  472.69  568.62  723.41  834.70  834.70  904.40  904.40  917.00 1012.84
 1012.84 1043.62 1098.92 1297.67 1301.57 1351.59 1351.59 1403.93 1403.93
 1418.04 1423.25 1423.25 1473.68 1488.67 1522.67


--------------------------------------------------------------------------------
  K point     44 =   0.062500  0.687500  0.437500  Weight =    0.004
--------------------------------------------------------------------------------

  Frequencies (cm-1) [NB: Negative implies an imaginary mode]:

  578.22  681.63  704.38  796.41  831.45  844.51  871.79  929.84  953.57
 1002.61 1033.72 1064.40 1313.04 1333.05 1350.34 1391.88 1402.72 1418.20
 1424.11 1437.44 1442.35 1464.41 1465.94 1499.15


--------------------------------------------------------------------------------
  K point     45 =   0.062500  0.687500  0.562500  Weight =    0.004
--------------------------------------------------------------------------------

  Frequencies (cm-1) [NB: Negative implies an imaginary mode]:

  578.22  681.63  704.38  796.41  831.45  844.51  871.79  929.84  953.57
 1002.61 1033.72 1064.40 1313.04 1333.05 1350.34 1391.88 1402.72 1418.20
 1424.11 1437.44 1442.35 1464.41 1465.94 1499.15


--------------------------------------------------------------------------------
  K point     46 =   0.062500  0.687500  0.687500  Weight =    0.004
--------------------------------------------------------------------------------

  Frequencies (cm-1) [NB: Negative implies an imaginary mode]:

  472.69  568.62  723.41  834.70  834.70  904.40  904.40  917.00 1012.84
 1012.84 1043.62 1098.92 1297.67 1301.57 1351.59 1351.59 1403.93 1403.93
 1418.04 1423.25 1423.25 1473.68 1488.67 1522.67


--------------------------------------------------------------------------------
  K point     47 =   0.062500  0.687500  0.812500  Weight =    0.004
--------------------------------------------------------------------------------

  Frequencies (cm-1) [NB: Negative implies an imaginary mode]:

  411.12  471.38  614.79  836.28  865.61  955.81  975.22 1000.24 1000.25
 1074.77 1077.42 1114.89 1246.85 1285.20 1304.06 1364.04 1365.29 1387.63
 1388.62 1398.87 1443.93 1497.62 1504.33 1534.78


--------------------------------------------------------------------------------
  K point     48 =   0.062500  0.687500  0.937500  Weight =    0.004
--------------------------------------------------------------------------------

  Frequencies (cm-1) [NB: Negative implies an imaginary mode]:

  403.65  414.71  526.62  839.80  844.96  994.45 1037.02 1037.02 1085.49
 1085.49 1112.15 1112.15 1204.75 1204.75 1331.93 1331.93 1368.47 1368.47
 1372.32 1376.84 1454.17 1512.25 1512.30 1538.02


--------------------------------------------------------------------------------
  K point     49 =   0.062500  0.812500  0.062500  Weight =    0.004
--------------------------------------------------------------------------------

  Frequencies (cm-1) [NB: Negative implies an imaginary mode]:

  246.41  262.52  355.08  957.15  965.65 1037.22 1037.22 1071.56 1071.56
 1117.60 1154.74 1154.74 1228.56 1228.56 1301.78 1301.78 1305.60 1312.59
 1351.76 1351.76 1401.00 1534.95 1535.51 1547.86


--------------------------------------------------------------------------------
  K point     50 =   0.062500  0.812500  0.187500  Weight =    0.004
--------------------------------------------------------------------------------

  Frequencies (cm-1) [NB: Negative implies an imaginary mode]:

  294.57  345.84  474.31  954.95  954.95  980.41  980.41 1002.54 1092.94
 1095.01 1095.01 1127.50 1260.65 1271.43 1298.99 1298.99 1336.22 1336.22
 1380.02 1396.64 1396.64 1521.03 1524.91 1545.42


--------------------------------------------------------------------------------
  K point     51 =   0.062500  0.812500  0.312500  Weight =    0.004
--------------------------------------------------------------------------------

  Frequencies (cm-1) [NB: Negative implies an imaginary mode]:

  411.12  471.38  614.79  836.28  865.61  955.81  975.22 1000.24 1000.25
 1074.77 1077.42 1114.89 1246.85 1285.20 1304.06 1364.04 1365.29 1387.63
 1388.62 1398.87 1443.93 1497.62 1504.33 1534.78


--------------------------------------------------------------------------------
  K point     52 =   0.062500  0.812500  0.437500  Weight =    0.004
--------------------------------------------------------------------------------

  Frequencies (cm-1) [NB: Negative implies an imaginary mode]:

  553.75  606.52  699.23  739.76  754.37  884.60  956.10  960.06 1023.03
 1048.81 1075.99 1095.94 1251.16 1267.61 1337.77 1362.76 1394.96 1403.76
 1420.73 1435.09 1464.63 1474.19 1483.95 1514.42


--------------------------------------------------------------------------------
  K point     53 =   0.062500  0.812500  0.562500  Weight =    0.004
--------------------------------------------------------------------------------

  Frequencies (cm-1) [NB: Negative implies an imaginary mode]:

  553.75  606.52  699.23  739.76  754.37  884.60  956.10  960.06 1023.03
 1048.81 1075.99 1095.94 1251.16 1267.61 1337.77 1362.76 1394.96 1403.76
 1420.73 1435.09 1464.63 1474.19 1483.95 1514.42


--------------------------------------------------------------------------------
  K point     54 =   0.062500  0.812500  0.687500  Weight =    0.004
--------------------------------------------------------------------------------

  Frequencies (cm-1) [NB: Negative implies an imaginary mode]:

  411.12  471.38  614.79  836.28  865.61  955.81  975.22 1000.24 1000.25
 1074.77 1077.42 1114.89 1246.85 1285.20 1304.06 1364.04 1365.29 1387.63
 1388.62 1398.87 1443.93 1497.62 1504.33 1534.78


--------------------------------------------------------------------------------
  K point     55 =   0.062500  0.812500  0.812500  Weight =    0.004
--------------------------------------------------------------------------------

  Frequencies (cm-1) [NB: Negative implies an imaginary mode]:

  294.57  345.84  474.31  954.95  954.95  980.41  980.41 1002.54 1092.94
 1095.01 1095.01 1127.50 1260.65 1271.43 1298.99 1298.99 1336.22 1336.22
 1380.02 1396.64 1396.64 1521.03 1524.91 1545.42


--------------------------------------------------------------------------------
  K point     56 =   0.062500  0.812500  0.937500  Weight =    0.004
--------------------------------------------------------------------------------

  Frequencies (cm-1) [NB: Negative implies an imaginary mode]:

  246.41  262.52  355.08  957.15  965.65 1037.22 1037.22 1071.56 1071.56
 1117.60 1154.74 1154.74 1228.56 1228.56 1301.78 1301.78 1305.60 1312.59
 1351.76 1351.76 1401.00 1534.95 1535.51 1547.86


--------------------------------------------------------------------------------
  K point     57 =   0.062500  0.937500  0.062500  Weight =    0.004
--------------------------------------------------------------------------------

  Frequencies (cm-1) [NB: Negative implies an imaginary mode]:

  125.64  125.64  197.95 1044.77 1044.77 1044.77 1057.00 1057.00 1057.00
 1200.21 1200.21 1200.21 1243.62 1243.62 1243.62 1269.29 1269.29 1269.29
 1334.82 1334.82 1334.82 1547.09 1547.09 1551.43


--------------------------------------------------------------------------------
  K point     58 =   0.062500  0.937500  0.187500  Weight =    0.004
--------------------------------------------------------------------------------

  Frequencies (cm-1) [NB: Negative implies an imaginary mode]:

  246.41  262.52  355.08  957.15  965.65 1037.22 1037.22 1071.56 1071.56
 1117.60 1154.74 1154.74 1228.56 1228.56 1301.78 1301.78 1305.60 1312.59
 1351.76 1351.76 1401.00 1534.95 1535.51 1547.86


--------------------------------------------------------------------------------
  K point     59 =   0.062500  0.937500  0.312500  Weight =    0.004
--------------------------------------------------------------------------------

  Frequencies (cm-1) [NB: Negative implies an imaginary mode]:

  403.65  414.71  526.62  839.80  844.96  994.45 1037.02 1037.02 1085.49
 1085.49 1112.15 1112.15 1204.75 1204.75 1331.93 1331.93 1368.47 1368.47
 1372.32 1376.84 1454.17 1512.25 1512.30 1538.02


--------------------------------------------------------------------------------
  K point     60 =   0.062500  0.937500  0.437500  Weight =    0.004
--------------------------------------------------------------------------------

  Frequencies (cm-1) [NB: Negative implies an imaginary mode]:

  560.10  564.64  694.52  707.45  708.41  851.95 1045.50 1045.50 1076.17
 1076.17 1099.42 1099.42 1188.25 1188.25 1348.66 1348.66 1377.66 1377.66
 1430.38 1433.20 1477.20 1478.48 1493.39 1520.56


--------------------------------------------------------------------------------
  K point     61 =   0.062500  0.937500  0.562500  Weight =    0.004
--------------------------------------------------------------------------------

  Frequencies (cm-1) [NB: Negative implies an imaginary mode]:

  560.10  564.64  694.52  707.45  708.41  851.95 1045.50 1045.50 1076.17
 1076.17 1099.42 1099.42 1188.25 1188.25 1348.66 1348.66 1377.66 1377.66
 1430.38 1433.20 1477.20 1478.48 1493.39 1520.56


--------------------------------------------------------------------------------
  K point     62 =   0.062500  0.937500  0.687500  Weight =    0.004
--------------------------------------------------------------------------------

  Frequencies (cm-1) [NB: Negative implies an imaginary mode]:

  403.65  414.71  526.62  839.80  844.96  994.45 1037.02 1037.02 1085.49
 1085.49 1112.15 1112.15 1204.75 1204.75 1331.93 1331.93 1368.47 1368.47
 1372.32 1376.84 1454.17 1512.25 1512.30 1538.02


--------------------------------------------------------------------------------
  K point     63 =   0.062500  0.937500  0.812500  Weight =    0.004
--------------------------------------------------------------------------------

  Frequencies (cm-1) [NB: Negative implies an imaginary mode]:

  246.41  262.52  355.08  957.15  965.65 1037.22 1037.22 1071.56 1071.56
 1117.60 1154.74 1154.74 1228.56 1228.56 1301.78 1301.78 1305.60 1312.59
 1351.76 1351.76 1401.00 1534.95 1535.51 1547.86


--------------------------------------------------------------------------------
  K point     64 =   0.062500  0.937500  0.937500  Weight =    0.004
--------------------------------------------------------------------------------

  Frequencies (cm-1) [NB: Negative implies an imaginary mode]:

  125.64  125.64  197.95 1044.77 1044.77 1044.77 1057.00 1057.00 1057.00
 1200.21 1200.21 1200.21 1243.62 1243.62 1243.62 1269.29 1269.29 1269.29
 1334.82 1334.82 1334.82 1547.09 1547.09 1551.43


--------------------------------------------------------------------------------
  K point     65 =   0.187500  0.062500  0.062500  Weight =    0.004
--------------------------------------------------------------------------------

  Frequencies (cm-1) [NB: Negative implies an imaginary mode]:

  246.41  262.52  355.08  957.15  965.65 1037.22 1037.22 1071.56 1071.56
 1117.60 1154.74 1154.74 1228.56 1228.56 1301.78 1301.78 1305.60 1312.59
 1351.76 1351.76 1401.00 1534.95 1535.51 1547.86


--------------------------------------------------------------------------------
  K point     66 =   0.187500  0.062500  0.187500  Weight =    0.004
--------------------------------------------------------------------------------

  Frequencies (cm-1) [NB: Negative implies an imaginary mode]:

  294.57  345.84  474.31  954.95  954.95  980.41  980.41 1002.54 1092.94
 1095.01 1095.01 1127.50 1260.65 1271.43 1298.99 1298.99 1336.22 1336.22
 1380.02 1396.64 1396.64 1521.03 1524.91 1545.42


--------------------------------------------------------------------------------
  K point     67 =   0.187500  0.062500  0.312500  Weight =    0.004
--------------------------------------------------------------------------------

  Frequencies (cm-1) [NB: Negative implies an imaginary mode]:

  411.12  471.38  614.79  836.28  865.61  955.81  975.22 1000.24 1000.25
 1074.77 1077.42 1114.89 1246.85 1285.20 1304.06 1364.04 1365.29 1387.63
 1388.62 1398.87 1443.93 1497.62 1504.33 1534.78


--------------------------------------------------------------------------------
  K point     68 =   0.187500  0.062500  0.437500  Weight =    0.004
--------------------------------------------------------------------------------

  Frequencies (cm-1) [NB: Negative implies an imaginary mode]:

  553.75  606.52  699.23  739.76  754.37  884.60  956.10  960.06 1023.03
 1048.81 1075.99 1095.94 1251.16 1267.61 1337.77 1362.76 1394.96 1403.76
 1420.73 1435.09 1464.63 1474.19 1483.95 1514.42


--------------------------------------------------------------------------------
  K point     69 =   0.187500  0.062500  0.562500  Weight =    0.004
--------------------------------------------------------------------------------

  Frequencies (cm-1) [NB: Negative implies an imaginary mode]:

  553.75  606.52  699.23  739.76  754.37  884.60  956.10  960.06 1023.03
 1048.81 1075.99 1095.94 1251.16 1267.61 1337.77 1362.76 1394.96 1403.76
 1420.73 1435.09 1464.63 1474.19 1483.95 1514.42


--------------------------------------------------------------------------------
  K point     70 =   0.187500  0.062500  0.687500  Weight =    0.004
--------------------------------------------------------------------------------

  Frequencies (cm-1) [NB: Negative implies an imaginary mode]:

  411.12  471.38  614.79  836.28  865.61  955.81  975.22 1000.24 1000.25
 1074.77 1077.42 1114.89 1246.85 1285.20 1304.06 1364.04 1365.29 1387.63
 1388.62 1398.87 1443.93 1497.62 1504.33 1534.78


--------------------------------------------------------------------------------
  K point     71 =   0.187500  0.062500  0.812500  Weight =    0.004
--------------------------------------------------------------------------------

  Frequencies (cm-1) [NB: Negative implies an imaginary mode]:

  294.57  345.84  474.31  954.95  954.95  980.41  980.41 1002.54 1092.94
 1095.01 1095.01 1127.50 1260.65 1271.43 1298.99 1298.99 1336.22 1336.22
 1380.02 1396.64 1396.64 1521.03 1524.91 1545.42


--------------------------------------------------------------------------------
  K point     72 =   0.187500  0.062500  0.937500  Weight =    0.004
--------------------------------------------------------------------------------

  Frequencies (cm-1) [NB: Negative implies an imaginary mode]:

  246.41  262.52  355.08  957.15  965.65 1037.22 1037.22 1071.56 1071.56
 1117.60 1154.74 1154.74 1228.56 1228.56 1301.78 1301.78 1305.60 1312.59
 1351.76 1351.76 1401.00 1534.95 1535.51 1547.86


--------------------------------------------------------------------------------
  K point     73 =   0.187500  0.187500  0.062500  Weight =    0.004
--------------------------------------------------------------------------------

  Frequencies (cm-1) [NB: Negative implies an imaginary mode]:

  294.57  345.84  474.31  954.95  954.95  980.41  980.41 1002.54 1092.94
 1095.01 1095.01 1127.50 1260.65 1271.43 1298.99 1298.99 1336.22 1336.22
 1380.02 1396.64 1396.64 1521.03 1524.91 1545.42


--------------------------------------------------------------------------------
  K point     74 =   0.187500  0.187500  0.187500  Weight =    0.004
--------------------------------------------------------------------------------

  Frequencies (cm-1) [NB: Negative implies an imaginary mode]:

  366.52  366.52  573.88  934.68  934.68  934.68  990.05  990.05  990.05
 1090.64 1090.64 1090.64 1306.11 1306.11 1306.11 1335.76 1335.76 1335.76
 1400.75 1400.75 1400.75 1510.21 1510.21 1544.19


--------------------------------------------------------------------------------
  K point     75 =   0.187500  0.187500  0.312500  Weight =    0.004
--------------------------------------------------------------------------------

  Frequencies (cm-1) [NB: Negative implies an imaginary mode]:

  453.78  475.92  696.58  834.80  861.39  919.62  919.62  983.73  983.73
 1020.78 1094.00 1094.00 1301.64 1301.64 1349.02 1349.02 1362.13 1392.23
 1404.01 1404.01 1436.38 1488.36 1488.58 1534.01


--------------------------------------------------------------------------------
  K point     76 =   0.187500  0.187500  0.437500  Weight =    0.004
--------------------------------------------------------------------------------

  Frequencies (cm-1) [NB: Negative implies an imaginary mode]:

  580.95  597.81  719.91  721.76  817.99  912.62  912.62  928.05  973.26
  973.26 1100.47 1100.47 1294.82 1294.82 1362.21 1362.21 1404.38 1404.38
 1413.63 1431.21 1456.24 1461.95 1477.92 1512.03


--------------------------------------------------------------------------------
  K point     77 =   0.187500  0.187500  0.562500  Weight =    0.004
--------------------------------------------------------------------------------

  Frequencies (cm-1) [NB: Negative implies an imaginary mode]:

  580.95  597.81  719.91  721.76  817.99  912.62  912.62  928.05  973.26
  973.26 1100.47 1100.47 1294.82 1294.82 1362.21 1362.21 1404.38 1404.38
 1413.63 1431.21 1456.24 1461.95 1477.92 1512.03


--------------------------------------------------------------------------------
  K point     78 =   0.187500  0.187500  0.687500  Weight =    0.004
--------------------------------------------------------------------------------

  Frequencies (cm-1) [NB: Negative implies an imaginary mode]:

  453.78  475.92  696.58  834.80  861.39  919.62  919.62  983.73  983.73
 1020.78 1094.00 1094.00 1301.64 1301.64 1349.02 1349.02 1362.13 1392.23
 1404.01 1404.01 1436.38 1488.36 1488.58 1534.01


--------------------------------------------------------------------------------
  K point     79 =   0.187500  0.187500  0.812500  Weight =    0.004
--------------------------------------------------------------------------------

  Frequencies (cm-1) [NB: Negative implies an imaginary mode]:

  366.52  366.52  573.88  934.68  934.68  934.68  990.05  990.05  990.05
 1090.64 1090.64 1090.64 1306.11 1306.11 1306.11 1335.76 1335.76 1335.76
 1400.75 1400.75 1400.75 1510.21 1510.21 1544.19


--------------------------------------------------------------------------------
  K point     80 =   0.187500  0.187500  0.937500  Weight =    0.004
--------------------------------------------------------------------------------

  Frequencies (cm-1) [NB: Negative implies an imaginary mode]:

  294.57  345.84  474.31  954.95  954.95  980.41  980.41 1002.54 1092.94
 1095.01 1095.01 1127.50 1260.65 1271.43 1298.99 1298.99 1336.22 1336.22
 1380.02 1396.64 1396.64 1521.03 1524.91 1545.42


--------------------------------------------------------------------------------
  K point     81 =   0.187500  0.312500  0.062500  Weight =    0.004
--------------------------------------------------------------------------------

  Frequencies (cm-1) [NB: Negative implies an imaginary mode]:

  411.12  471.38  614.79  836.28  865.61  955.81  975.22 1000.24 1000.25
 1074.77 1077.42 1114.89 1246.85 1285.20 1304.06 1364.04 1365.29 1387.63
 1388.62 1398.87 1443.93 1497.62 1504.33 1534.78


--------------------------------------------------------------------------------
  K point     82 =   0.187500  0.312500  0.187500  Weight =    0.004
--------------------------------------------------------------------------------

  Frequencies (cm-1) [NB: Negative implies an imaginary mode]:

  453.78  475.92  696.58  834.80  861.39  919.62  919.62  983.73  983.73
 1020.78 1094.00 1094.00 1301.64 1301.64 1349.02 1349.02 1362.13 1392.23
 1404.01 1404.01 1436.38 1488.36 1488.58 1534.01


--------------------------------------------------------------------------------
  K point     83 =   0.187500  0.312500  0.312500  Weight =    0.004
--------------------------------------------------------------------------------

  Frequencies (cm-1) [NB: Negative implies an imaginary mode]:

  508.91  551.40  798.64  827.99  827.99  871.37  871.37  878.22  954.81
 1050.02 1050.02 1105.85 1320.49 1349.34 1353.54 1353.54 1401.45 1401.45
 1413.93 1421.41 1421.41 1464.94 1470.93 1524.15


--------------------------------------------------------------------------------
  K point     84 =   0.187500  0.312500  0.437500  Weight =    0.004
--------------------------------------------------------------------------------

  Frequencies (cm-1) [NB: Negative implies an imaginary mode]:

  600.92  652.30  714.90  760.22  829.09  845.94  893.30  897.82  922.55
  983.62 1078.77 1099.81 1330.12 1341.52 1372.75 1398.78 1399.33 1411.12
 1416.08 1425.77 1435.80 1448.13 1464.90 1501.45


--------------------------------------------------------------------------------
  K point     85 =   0.187500  0.312500  0.562500  Weight =    0.004
--------------------------------------------------------------------------------

  Frequencies (cm-1) [NB: Negative implies an imaginary mode]:

  600.92  652.30  714.90  760.22  829.09  845.94  893.30  897.82  922.55
  983.62 1078.77 1099.81 1330.12 1341.52 1372.75 1398.78 1399.33 1411.12
 1416.08 1425.77 1435.80 1448.13 1464.90 1501.45


--------------------------------------------------------------------------------
  K point     86 =   0.187500  0.312500  0.687500  Weight =    0.004
--------------------------------------------------------------------------------

  Frequencies (cm-1) [NB: Negative implies an imaginary mode]:

  508.91  551.40  798.64  827.99  827.99  871.37  871.37  878.22  954.81
 1050.02 1050.02 1105.85 1320.49 1349.34 1353.54 1353.54 1401.45 1401.45
 1413.93 1421.41 1421.41 1464.94 1470.93 1524.15


--------------------------------------------------------------------------------
  K point     87 =   0.187500  0.312500  0.812500  Weight =    0.004
--------------------------------------------------------------------------------

  Frequencies (cm-1) [NB: Negative implies an imaginary mode]:

  453.78  475.92  696.58  834.80  861.39  919.62  919.62  983.73  983.73
 1020.78 1094.00 1094.00 1301.64 1301.64 1349.02 1349.02 1362.13 1392.23
 1404.01 1404.01 1436.38 1488.36 1488.58 1534.01


--------------------------------------------------------------------------------
  K point     88 =   0.187500  0.312500  0.937500  Weight =    0.004
--------------------------------------------------------------------------------

  Frequencies (cm-1) [NB: Negative implies an imaginary mode]:

  411.12  471.38  614.79  836.28  865.61  955.81  975.22 1000.24 1000.25
 1074.77 1077.42 1114.89 1246.85 1285.20 1304.06 1364.04 1365.29 1387.63
 1388.62 1398.87 1443.93 1497.62 1504.33 1534.78


--------------------------------------------------------------------------------
  K point     89 =   0.187500  0.437500  0.062500  Weight =    0.004
--------------------------------------------------------------------------------

  Frequencies (cm-1) [NB: Negative implies an imaginary mode]:

  553.75  606.52  699.23  739.76  754.37  884.60  956.10  960.06 1023.03
 1048.81 1075.99 1095.94 1251.16 1267.61 1337.77 1362.76 1394.96 1403.76
 1420.73 1435.09 1464.63 1474.19 1483.95 1514.42


--------------------------------------------------------------------------------
  K point     90 =   0.187500  0.437500  0.187500  Weight =    0.004
--------------------------------------------------------------------------------

  Frequencies (cm-1) [NB: Negative implies an imaginary mode]:

  580.95  597.81  719.91  721.76  817.99  912.62  912.62  928.05  973.26
  973.26 1100.47 1100.47 1294.82 1294.82 1362.21 1362.21 1404.38 1404.38
 1413.63 1431.21 1456.24 1461.95 1477.92 1512.03


--------------------------------------------------------------------------------
  K point     91 =   0.187500  0.437500  0.312500  Weight =    0.004
--------------------------------------------------------------------------------

  Frequencies (cm-1) [NB: Negative implies an imaginary mode]:

  600.92  652.30  714.90  760.22  829.09  845.94  893.30  897.82  922.55
  983.62 1078.77 1099.81 1330.12 1341.52 1372.75 1398.78 1399.33 1411.12
 1416.08 1425.77 1435.80 1448.13 1464.90 1501.45


--------------------------------------------------------------------------------
  K point     92 =   0.187500  0.437500  0.437500  Weight =    0.004
--------------------------------------------------------------------------------

  Frequencies (cm-1) [NB: Negative implies an imaginary mode]:

  653.76  728.64  735.34  735.34  781.85  811.33  811.33  867.46  973.60
 1035.69 1035.69 1076.42 1357.06 1379.05 1379.05 1396.81 1409.58 1416.49
 1416.49 1428.68 1432.16 1446.01 1446.01 1479.45


--------------------------------------------------------------------------------
  K point     93 =   0.187500  0.437500  0.562500  Weight =    0.004
--------------------------------------------------------------------------------

  Frequencies (cm-1) [NB: Negative implies an imaginary mode]:

  653.76  728.64  735.34  735.34  781.85  811.33  811.33  867.46  973.60
 1035.69 1035.69 1076.42 1357.06 1379.05 1379.05 1396.81 1409.58 1416.49
 1416.49 1428.68 1432.16 1446.01 1446.01 1479.45


--------------------------------------------------------------------------------
  K point     94 =   0.187500  0.437500  0.687500  Weight =    0.004
--------------------------------------------------------------------------------

  Frequencies (cm-1) [NB: Negative implies an imaginary mode]:

  600.92  652.30  714.90  760.22  829.09  845.94  893.30  897.82  922.55
  983.62 1078.77 1099.81 1330.12 1341.52 1372.75 1398.78 1399.33 1411.12
 1416.08 1425.77 1435.80 1448.13 1464.90 1501.45


--------------------------------------------------------------------------------
  K point     95 =   0.187500  0.437500  0.812500  Weight =    0.004
--------------------------------------------------------------------------------

  Frequencies (cm-1) [NB: Negative implies an imaginary mode]:

  580.95  597.81  719.91  721.76  817.99  912.62  912.62  928.05  973.26
  973.26 1100.47 1100.47 1294.82 1294.82 1362.21 1362.21 1404.38 1404.38
 1413.63 1431.21 1456.24 1461.95 1477.92 1512.03


--------------------------------------------------------------------------------
  K point     96 =   0.187500  0.437500  0.937500  Weight =    0.004
--------------------------------------------------------------------------------

  Frequencies (cm-1) [NB: Negative implies an imaginary mode]:

  553.75  606.52  699.23  739.76  754.37  884.60  956.10  960.06 1023.03
 1048.81 1075.99 1095.94 1251.16 1267.61 1337.77 1362.76 1394.96 1403.76
 1420.73 1435.09 1464.63 1474.19 1483.95 1514.42


--------------------------------------------------------------------------------
  K point     97 =   0.187500  0.562500  0.062500  Weight =    0.004
--------------------------------------------------------------------------------

  Frequencies (cm-1) [NB: Negative implies an imaginary mode]:

  553.75  606.52  699.23  739.76  754.37  884.60  956.10  960.06 1023.03
 1048.81 1075.99 1095.94 1251.16 1267.61 1337.77 1362.76 1394.96 1403.76
 1420.73 1435.09 1464.63 1474.19 1483.95 1514.42


--------------------------------------------------------------------------------
  K point     98 =   0.187500  0.562500  0.187500  Weight =    0.004
--------------------------------------------------------------------------------

  Frequencies (cm-1) [NB: Negative implies an imaginary mode]:

  580.95  597.81  719.91  721.76  817.99  912.62  912.62  928.05  973.26
  973.26 1100.47 1100.47 1294.82 1294.82 1362.21 1362.21 1404.38 1404.38
 1413.63 1431.21 1456.24 1461.95 1477.92 1512.03


--------------------------------------------------------------------------------
  K point     99 =   0.187500  0.562500  0.312500  Weight =    0.004
--------------------------------------------------------------------------------

  Frequencies (cm-1) [NB: Negative implies an imaginary mode]:

  600.92  652.30  714.90  760.22  829.09  845.94  893.30  897.82  922.55
  983.62 1078.77 1099.81 1330.12 1341.52 1372.75 1398.78 1399.33 1411.12
 1416.08 1425.77 1435.80 1448.13 1464.90 1501.45


--------------------------------------------------------------------------------
  K point    100 =   0.187500  0.562500  0.437500  Weight =    0.004
--------------------------------------------------------------------------------

  Frequencies (cm-1) [NB: Negative implies an imaginary mode]:

  653.76  728.64  735.34  735.34  781.85  811.33  811.33  867.46  973.60
 1035.69 1035.69 1076.42 1357.06 1379.05 1379.05 1396.81 1409.58 1416.49
 1416.49 1428.68 1432.16 1446.01 1446.01 1479.45


--------------------------------------------------------------------------------
  K point    101 =   0.187500  0.562500  0.562500  Weight =    0.004
--------------------------------------------------------------------------------

  Frequencies (cm-1) [NB: Negative implies an imaginary mode]:

  653.76  728.64  735.34  735.34  781.85  811.33  811.33  867.46  973.60
 1035.69 1035.69 1076.42 1357.06 1379.05 1379.05 1396.81 1409.58 1416.49
 1416.49 1428.68 1432.16 1446.01 1446.01 1479.45


--------------------------------------------------------------------------------
  K point    102 =   0.187500  0.562500  0.687500  Weight =    0.004
--------------------------------------------------------------------------------

  Frequencies (cm-1) [NB: Negative implies an imaginary mode]:

  600.92  652.30  714.90  760.22  829.09  845.94  893.30  897.82  922.55
  983.62 1078.77 1099.81 1330.12 1341.52 1372.75 1398.78 1399.33 1411.12
 1416.08 1425.77 1435.80 1448.13 1464.90 1501.45


--------------------------------------------------------------------------------
  K point    103 =   0.187500  0.562500  0.812500  Weight =    0.004
--------------------------------------------------------------------------------

  Frequencies (cm-1) [NB: Negative implies an imaginary mode]:

  580.95  597.81  719.91  721.76  817.99  912.62  912.62  928.05  973.26
  973.26 1100.47 1100.47 1294.82 1294.82 1362.21 1362.21 1404.38 1404.38
 1413.63 1431.21 1456.24 1461.95 1477.92 1512.03


--------------------------------------------------------------------------------
  K point    104 =   0.187500  0.562500  0.937500  Weight =    0.004
--------------------------------------------------------------------------------

  Frequencies (cm-1) [NB: Negative implies an imaginary mode]:

  553.75  606.52  699.23  739.76  754.37  884.60  956.10  960.06 1023.03
 1048.81 1075.99 1095.94 1251.16 1267.61 1337.77 1362.76 1394.96 1403.76
 1420.73 1435.09 1464.63 1474.19 1483.95 1514.42


--------------------------------------------------------------------------------
  K point    105 =   0.187500  0.687500  0.062500  Weight =    0.004
--------------------------------------------------------------------------------

  Frequencies (cm-1) [NB: Negative implies an imaginary mode]:

  411.12  471.38  614.79  836.28  865.61  955.81  975.22 1000.24 1000.25
 1074.77 1077.42 1114.89 1246.85 1285.20 1304.06 1364.04 1365.29 1387.63
 1388.62 1398.87 1443.93 1497.62 1504.33 1534.78


--------------------------------------------------------------------------------
  K point    106 =   0.187500  0.687500  0.187500  Weight =    0.004
--------------------------------------------------------------------------------

  Frequencies (cm-1) [NB: Negative implies an imaginary mode]:

  453.78  475.92  696.58  834.80  861.39  919.62  919.62  983.73  983.73
[...]
  Zero point energy            =        1.683317 eV
  Entropy                      =        0.000002 eV/K
                               =        0.202172 J/(mol.K)
  Helmholtz free-energy        =      -57.267078 eV
                               =    -5525.397179 kJmol-1
  Free energy (equipartition)  =      -58.459884 eV
  - T*S       (equipartition)  =        0.325020 eV
  Uvib        (equipartition)  =        0.165453 eV
  Mean kinetic energy          =        0.841723 eV
  Heat capacity - const volume =        0.000007 eV/K
                               =        0.649006 J/(mol.K)
--------------------------------------------------------------------------------
  Phonon properties (per mole of unit cells): Temperature =     90.000 K
--------------------------------------------------------------------------------
  Zero point energy            =        1.683317 eV
  Entropy                      =        0.000003 eV/K
                               =        0.294759 J/(mol.K)
  Helmholtz free-energy        =      -57.267104 eV
                               =    -5525.399644 kJmol-1
  Free energy (equipartition)  =      -58.420498 eV
  - T*S       (equipartition)  =        0.343725 eV
  Uvib        (equipartition)  =        0.186134 eV
  Mean kinetic energy          =        0.841764 eV
  Heat capacity - const volume =        0.000010 eV/K
                               =        0.942066 J/(mol.K)
--------------------------------------------------------------------------------
  Phonon properties (per mole of unit cells): Temperature =    100.000 K
--------------------------------------------------------------------------------
  Zero point energy            =        1.683317 eV
  Entropy                      =        0.000004 eV/K
                               =        0.412831 J/(mol.K)
  Helmholtz free-energy        =      -57.267140 eV
                               =    -5525.403159 kJmol-1
  Free energy (equipartition)  =      -58.383415 eV
  - T*S       (equipartition)  =        0.360126 eV
  Uvib        (equipartition)  =        0.206816 eV
  Mean kinetic energy          =        0.841822 eV
  Heat capacity - const volume =        0.000014 eV/K
                               =        1.321523 J/(mol.K)
--------------------------------------------------------------------------------
  Phonon properties (per mole of unit cells): Temperature =    110.000 K
--------------------------------------------------------------------------------
  Zero point energy            =        1.683317 eV
  Entropy                      =        0.000006 eV/K
                               =        0.560471 J/(mol.K)
  Helmholtz free-energy        =      -57.267191 eV
                               =    -5525.407999 kJmol-1
  Free energy (equipartition)  =      -58.348404 eV
  - T*S       (equipartition)  =        0.374456 eV
  Uvib        (equipartition)  =        0.227498 eV
  Mean kinetic energy          =        0.841903 eV
  Heat capacity - const volume =        0.000019 eV/K
                               =        1.802318 J/(mol.K)
--------------------------------------------------------------------------------
  Phonon properties (per mole of unit cells): Temperature =    120.000 K
--------------------------------------------------------------------------------
  Zero point energy            =        1.683317 eV
  Entropy                      =        0.000008 eV/K
                               =        0.741981 J/(mol.K)
  Helmholtz free-energy        =      -57.267258 eV
                               =    -5525.414481 kJmol-1
  Free energy (equipartition)  =      -58.315275 eV
  - T*S       (equipartition)  =        0.386903 eV
  Uvib        (equipartition)  =        0.248179 eV
  Mean kinetic energy          =        0.842011 eV
  Heat capacity - const volume =        0.000025 eV/K
                               =        2.398840 J/(mol.K)
--------------------------------------------------------------------------------
  Phonon properties (per mole of unit cells): Temperature =    130.000 K
--------------------------------------------------------------------------------
  Zero point energy            =        1.683317 eV
  Entropy                      =        0.000010 eV/K
                               =        0.961726 J/(mol.K)
  Helmholtz free-energy        =      -57.267346 eV
                               =    -5525.422966 kJmol-1
  Free energy (equipartition)  =      -58.283872 eV
  - T*S       (equipartition)  =        0.397624 eV
  Uvib        (equipartition)  =        0.268861 eV
  Mean kinetic energy          =        0.842154 eV
  Heat capacity - const volume =        0.000032 eV/K
                               =        3.123894 J/(mol.K)
--------------------------------------------------------------------------------
  Phonon properties (per mole of unit cells): Temperature =    140.000 K
--------------------------------------------------------------------------------
  Zero point energy            =        1.683317 eV
  Entropy                      =        0.000013 eV/K
                               =        1.223968 J/(mol.K)
  Helmholtz free-energy        =      -57.267459 eV
                               =    -5525.433857 kJmol-1
  Free energy (equipartition)  =      -58.254062 eV
  - T*S       (equipartition)  =        0.406753 eV
  Uvib        (equipartition)  =        0.289542 eV
  Mean kinetic energy          =        0.842337 eV
  Heat capacity - const volume =        0.000041 eV/K
                               =        3.987961 J/(mol.K)
--------------------------------------------------------------------------------
  Phonon properties (per mole of unit cells): Temperature =    150.000 K
--------------------------------------------------------------------------------
  Zero point energy            =        1.683317 eV
  Entropy                      =        0.000016 eV/K
                               =        1.532718 J/(mol.K)
  Helmholtz free-energy        =      -57.267601 eV
                               =    -5525.447600 kJmol-1
  Free energy (equipartition)  =      -58.225729 eV
  - T*S       (equipartition)  =        0.414404 eV
  Uvib        (equipartition)  =        0.310224 eV
  Mean kinetic energy          =        0.842570 eV
  Heat capacity - const volume =        0.000052 eV/K
                               =        4.998818 J/(mol.K)
--------------------------------------------------------------------------------
  Phonon properties (per mole of unit cells): Temperature =    160.000 K
--------------------------------------------------------------------------------
  Zero point energy            =        1.683317 eV
  Entropy                      =        0.000020 eV/K
                               =        1.891623 J/(mol.K)
  Helmholtz free-energy        =      -57.267778 eV
                               =    -5525.464679 kJmol-1
  Free energy (equipartition)  =      -58.198777 eV
  - T*S       (equipartition)  =        0.420675 eV
  Uvib        (equipartition)  =        0.330906 eV
  Mean kinetic energy          =        0.842858 eV
  Heat capacity - const volume =        0.000064 eV/K
                               =        6.161446 J/(mol.K)
--------------------------------------------------------------------------------
  Phonon properties (per mole of unit cells): Temperature =    170.000 K
--------------------------------------------------------------------------------
  Zero point energy            =        1.683317 eV
  Entropy                      =        0.000024 eV/K
                               =        2.303887 J/(mol.K)
  Helmholtz free-energy        =      -57.267995 eV
                               =    -5525.485611 kJmol-1
  Free energy (equipartition)  =      -58.173118 eV
  - T*S       (equipartition)  =        0.425652 eV
  Uvib        (equipartition)  =        0.351587 eV
  Mean kinetic energy          =        0.843211 eV
  Heat capacity - const volume =        0.000078 eV/K
                               =        7.478146 J/(mol.K)
--------------------------------------------------------------------------------
  Phonon properties (per mole of unit cells): Temperature =    180.000 K
--------------------------------------------------------------------------------
  Zero point energy            =        1.683317 eV
  Entropy                      =        0.000029 eV/K
                               =        2.772225 J/(mol.K)
  Helmholtz free-energy        =      -57.268258 eV
                               =    -5525.510944 kJmol-1
  Free energy (equipartition)  =      -58.148676 eV
  - T*S       (equipartition)  =        0.429412 eV
  Uvib        (equipartition)  =        0.372269 eV
  Mean kinetic energy          =        0.843636 eV
  Heat capacity - const volume =        0.000093 eV/K
                               =        8.948761 J/(mol.K)
--------------------------------------------------------------------------------
  Phonon properties (per mole of unit cells): Temperature =    190.000 K
--------------------------------------------------------------------------------
  Zero point energy            =        1.683317 eV
  Entropy                      =        0.000034 eV/K
                               =        3.298844 J/(mol.K)
  Helmholtz free-energy        =      -57.268572 eV
                               =    -5525.541250 kJmol-1
  Free energy (equipartition)  =      -58.125384 eV
  - T*S       (equipartition)  =        0.432022 eV
  Uvib        (equipartition)  =        0.392951 eV
  Mean kinetic energy          =        0.844141 eV
  Heat capacity - const volume =        0.000110 eV/K
                               =       10.570946 J/(mol.K)
--------------------------------------------------------------------------------
  Phonon properties (per mole of unit cells): Temperature =    200.000 K
--------------------------------------------------------------------------------
  Zero point energy            =        1.683317 eV
  Entropy                      =        0.000040 eV/K
                               =        3.885438 J/(mol.K)
  Helmholtz free-energy        =      -57.268943 eV
                               =    -5525.577120 kJmol-1
  Free energy (equipartition)  =      -58.103181 eV
  - T*S       (equipartition)  =        0.433544 eV
  Uvib        (equipartition)  =        0.413632 eV
  Mean kinetic energy          =        0.844734 eV
  Heat capacity - const volume =        0.000128 eV/K
                               =       12.340444 J/(mol.K)
--------------------------------------------------------------------------------
  Phonon properties (per mole of unit cells): Temperature =    210.000 K
--------------------------------------------------------------------------------
  Zero point energy            =        1.683317 eV
  Entropy                      =        0.000047 eV/K
                               =        4.533207 J/(mol.K)
  Helmholtz free-energy        =      -57.269379 eV
                               =    -5525.619162 kJmol-1
  Free energy (equipartition)  =      -58.082013 eV
  - T*S       (equipartition)  =        0.434031 eV
  Uvib        (equipartition)  =        0.434314 eV
  Mean kinetic energy          =        0.845422 eV
  Heat capacity - const volume =        0.000148 eV/K
                               =       14.251365 J/(mol.K)
--------------------------------------------------------------------------------
  Phonon properties (per mole of unit cells): Temperature =    220.000 K
--------------------------------------------------------------------------------
  Zero point energy            =        1.683317 eV
  Entropy                      =        0.000054 eV/K
                               =        5.242876 J/(mol.K)
  Helmholtz free-energy        =      -57.269885 eV
                               =    -5525.667991 kJmol-1
  Free energy (equipartition)  =      -58.061829 eV
  - T*S       (equipartition)  =        0.433533 eV
  Uvib        (equipartition)  =        0.454995 eV
  Mean kinetic energy          =        0.846213 eV
  Heat capacity - const volume =        0.000169 eV/K
                               =       16.296438 J/(mol.K)
--------------------------------------------------------------------------------
  Phonon properties (per mole of unit cells): Temperature =    230.000 K
--------------------------------------------------------------------------------
  Zero point energy            =        1.683317 eV
  Entropy                      =        0.000062 eV/K
                               =        6.014723 J/(mol.K)
  Helmholtz free-energy        =      -57.270468 eV
                               =    -5525.724227 kJmol-1
  Free energy (equipartition)  =      -58.042586 eV
  - T*S       (equipartition)  =        0.432094 eV
  Uvib        (equipartition)  =        0.475677 eV
  Mean kinetic energy          =        0.847114 eV
  Heat capacity - const volume =        0.000191 eV/K
                               =       18.467263 J/(mol.K)
--------------------------------------------------------------------------------
  Phonon properties (per mole of unit cells): Temperature =    240.000 K
--------------------------------------------------------------------------------
  Zero point energy            =        1.683317 eV
  Entropy                      =        0.000071 eV/K
                               =        6.848615 J/(mol.K)
  Helmholtz free-energy        =      -57.271134 eV
                               =    -5525.788492 kJmol-1
  Free energy (equipartition)  =      -58.024243 eV
  - T*S       (equipartition)  =        0.429756 eV
  Uvib        (equipartition)  =        0.496359 eV
  Mean kinetic energy          =        0.848129 eV
  Heat capacity - const volume =        0.000215 eV/K
                               =       20.754546 J/(mol.K)
--------------------------------------------------------------------------------
  Phonon properties (per mole of unit cells): Temperature =    250.000 K
--------------------------------------------------------------------------------
  Zero point energy            =        1.683317 eV
  Entropy                      =        0.000080 eV/K
                               =        7.744039 J/(mol.K)
  Helmholtz free-energy        =      -57.271890 eV
                               =    -5525.861405 kJmol-1
  Free energy (equipartition)  =      -58.006761 eV
  - T*S       (equipartition)  =        0.426556 eV
  Uvib        (equipartition)  =        0.517040 eV
  Mean kinetic energy          =        0.849266 eV
  Heat capacity - const volume =        0.000240 eV/K
                               =       23.148318 J/(mol.K)
--------------------------------------------------------------------------------
  Phonon properties (per mole of unit cells): Temperature =    260.000 K
--------------------------------------------------------------------------------
  Zero point energy            =        1.683317 eV
  Entropy                      =        0.000090 eV/K
                               =        8.700143 J/(mol.K)
  Helmholtz free-energy        =      -57.272741 eV
                               =    -5525.943575 kJmol-1
  Free energy (equipartition)  =      -57.990107 eV
  - T*S       (equipartition)  =        0.422528 eV
  Uvib        (equipartition)  =        0.537722 eV
  Mean kinetic energy          =        0.850530 eV
  Heat capacity - const volume =        0.000266 eV/K
                               =       25.638152 J/(mol.K)
--------------------------------------------------------------------------------
  Phonon properties (per mole of unit cells): Temperature =    270.000 K
--------------------------------------------------------------------------------
  Zero point energy            =        1.683317 eV
  Entropy                      =        0.000101 eV/K
                               =        9.715772 J/(mol.K)
  Helmholtz free-energy        =      -57.273695 eV
                               =    -5526.035606 kJmol-1
  Free energy (equipartition)  =      -57.974249 eV
  - T*S       (equipartition)  =        0.417705 eV
  Uvib        (equipartition)  =        0.558403 eV
  Mean kinetic energy          =        0.851925 eV
  Heat capacity - const volume =        0.000292 eV/K
                               =       28.213349 J/(mol.K)
--------------------------------------------------------------------------------
  Phonon properties (per mole of unit cells): Temperature =    280.000 K
--------------------------------------------------------------------------------
  Zero point energy            =        1.683317 eV
  Entropy                      =        0.000112 eV/K
                               =       10.789507 J/(mol.K)
  Helmholtz free-energy        =      -57.274757 eV
                               =    -5526.138084 kJmol-1
  Free energy (equipartition)  =      -57.959157 eV
  - T*S       (equipartition)  =        0.412115 eV
  Uvib        (equipartition)  =        0.579085 eV
  Mean kinetic energy          =        0.853456 eV
  Heat capacity - const volume =        0.000320 eV/K
                               =       30.863120 J/(mol.K)
--------------------------------------------------------------------------------
  Phonon properties (per mole of unit cells): Temperature =    290.000 K
--------------------------------------------------------------------------------
  Zero point energy            =        1.683317 eV
  Entropy                      =        0.000124 eV/K
                               =       11.919697 J/(mol.K)
  Helmholtz free-energy        =      -57.275934 eV
                               =    -5526.251584 kJmol-1
  Free energy (equipartition)  =      -57.944803 eV
  - T*S       (equipartition)  =        0.405787 eV
  Uvib        (equipartition)  =        0.599767 eV
  Mean kinetic energy          =        0.855125 eV
  Heat capacity - const volume =        0.000348 eV/K
                               =       33.576742 J/(mol.K)
--------------------------------------------------------------------------------
  Phonon properties (per mole of unit cells): Temperature =    300.000 K
--------------------------------------------------------------------------------
  Zero point energy            =        1.683317 eV
  Entropy                      =        0.000136 eV/K
                               =       13.104502 J/(mol.K)
  Helmholtz free-energy        =      -57.277230 eV
                               =    -5526.376660 kJmol-1
  Free energy (equipartition)  =      -57.931163 eV
  - T*S       (equipartition)  =        0.398746 eV
  Uvib        (equipartition)  =        0.620448 eV
  Mean kinetic energy          =        0.856937 eV
  Heat capacity - const volume =        0.000377 eV/K
                               =       36.343698 J/(mol.K)
--------------------------------------------------------------------------------

  Time to end of properties =      13.4712 seconds


  Peak dynamic memory used =       1.93 MB 


  Timing analysis for GULP :

--------------------------------------------------------------------------------
  Task / Subroutine                                          Time (Seconds)
--------------------------------------------------------------------------------
  Calculation of real space energy and derivatives                0.0036
  Calculation of Brenner energy and derivatives                  13.1956
  Calculation of phonons                                         13.3833
  Calculation of matrix inversion                                 0.0001
  Disk read/write operations to scratch files                     0.0404
--------------------------------------------------------------------------------
  Total CPU time                                                 13.4713
--------------------------------------------------------------------------------


  Job Finished at 13:01.54 31st July       2020                               

