********************************************************************************
*                       GENERAL UTILITY LATTICE PROGRAM                        *
*                                 Julian Gale                                  *
*                       Curtin Institute for Computation                       *
*                           Department of Chemistry                            *
*                    Curtin University, Western Australia                      *
********************************************************************************
* Version = 5.1.0 * Last modified = 25th January 2020                          *
********************************************************************************
*  single       - perform a single point run                                   *
*  property     - calculate properties for final geometry                      *
*  phonon       - calculate phonons for final geometry                         *
********************************************************************************
* ASE calculation                                                              *
********************************************************************************


  Job Started  at 18:10.58 14th August     2020                               

  Number of CPUs =     1


  Total number of configurations input =      1

********************************************************************************
*  Input for Configuration =   1                                               *
********************************************************************************

  Formula = C8                                                          

  Number of irreducible atoms/shells =       8


  Total number atoms/shells =       8

  Dimensionality = 3               :  Bulk   



  Cartesian lattice vectors (Angstroms) :

        3.578903    0.000000    0.000000
        0.000000    3.578903    0.000000
        0.000000    0.000000    3.578903

  Cell parameters (Angstroms/Degrees):

  a =       3.5789    alpha =  90.0000
  b =       3.5789    beta  =  90.0000
  c =       3.5789    gamma =  90.0000

  Initial cell volume =          45.840546 Angs**3

  Shrinking factors =      8     8     8

  Temperature of configuration =  10.00     K 

  Pressure of configuration =         0.000 GPa 

  Fractional coordinates of asymmetric unit :

--------------------------------------------------------------------------------
   No.  Atomic       x           y          z         Charge      Occupancy
        Label      (Frac)      (Frac)     (Frac)        (e)         (Frac)  
--------------------------------------------------------------------------------
      1 C     c    0.000000    0.000000    0.000000     0.00000    1.000000    
      2 C     c    0.000000    0.500000    0.500000     0.00000    1.000000    
      3 C     c    0.500000    0.500000    0.000000     0.00000    1.000000    
      4 C     c    0.500000    0.000000    0.500000     0.00000    1.000000    
      5 C     c    0.750000    0.250000    0.750000     0.00000    1.000000    
      6 C     c    0.250000    0.250000    0.250000     0.00000    1.000000    
      7 C     c    0.250000    0.750000    0.750000     0.00000    1.000000    
      8 C     c    0.750000    0.750000    0.250000     0.00000    1.000000    
--------------------------------------------------------------------------------


  Brillouin zone sampling points :

--------------------------------------------------------------------------------
  Point number          x          y          z            Weight
--------------------------------------------------------------------------------
        1           0.062500   0.062500   0.062500     0.00390625
        2           0.062500   0.062500   0.187500     0.00390625
        3           0.062500   0.062500   0.312500     0.00390625
        4           0.062500   0.062500   0.437500     0.00390625
        5           0.062500   0.062500   0.562500     0.00390625
        6           0.062500   0.062500   0.687500     0.00390625
        7           0.062500   0.062500   0.812500     0.00390625
        8           0.062500   0.062500   0.937500     0.00390625
        9           0.062500   0.187500   0.062500     0.00390625
       10           0.062500   0.187500   0.187500     0.00390625
       11           0.062500   0.187500   0.312500     0.00390625
       12           0.062500   0.187500   0.437500     0.00390625
       13           0.062500   0.187500   0.562500     0.00390625
       14           0.062500   0.187500   0.687500     0.00390625
       15           0.062500   0.187500   0.812500     0.00390625
       16           0.062500   0.187500   0.937500     0.00390625
       17           0.062500   0.312500   0.062500     0.00390625
       18           0.062500   0.312500   0.187500     0.00390625
       19           0.062500   0.312500   0.312500     0.00390625
       20           0.062500   0.312500   0.437500     0.00390625
       21           0.062500   0.312500   0.562500     0.00390625
       22           0.062500   0.312500   0.687500     0.00390625
       23           0.062500   0.312500   0.812500     0.00390625
       24           0.062500   0.312500   0.937500     0.00390625
       25           0.062500   0.437500   0.062500     0.00390625
       26           0.062500   0.437500   0.187500     0.00390625
       27           0.062500   0.437500   0.312500     0.00390625
       28           0.062500   0.437500   0.437500     0.00390625
       29           0.062500   0.437500   0.562500     0.00390625
       30           0.062500   0.437500   0.687500     0.00390625
       31           0.062500   0.437500   0.812500     0.00390625
       32           0.062500   0.437500   0.937500     0.00390625
       33           0.062500   0.562500   0.062500     0.00390625
       34           0.062500   0.562500   0.187500     0.00390625
       35           0.062500   0.562500   0.312500     0.00390625
       36           0.062500   0.562500   0.437500     0.00390625
       37           0.062500   0.562500   0.562500     0.00390625
       38           0.062500   0.562500   0.687500     0.00390625
       39           0.062500   0.562500   0.812500     0.00390625
       40           0.062500   0.562500   0.937500     0.00390625
       41           0.062500   0.687500   0.062500     0.00390625
       42           0.062500   0.687500   0.187500     0.00390625
       43           0.062500   0.687500   0.312500     0.00390625
       44           0.062500   0.687500   0.437500     0.00390625
       45           0.062500   0.687500   0.562500     0.00390625
       46           0.062500   0.687500   0.687500     0.00390625
       47           0.062500   0.687500   0.812500     0.00390625
       48           0.062500   0.687500   0.937500     0.00390625
       49           0.062500   0.812500   0.062500     0.00390625
       50           0.062500   0.812500   0.187500     0.00390625
       51           0.062500   0.812500   0.312500     0.00390625
       52           0.062500   0.812500   0.437500     0.00390625
       53           0.062500   0.812500   0.562500     0.00390625
       54           0.062500   0.812500   0.687500     0.00390625
       55           0.062500   0.812500   0.812500     0.00390625
       56           0.062500   0.812500   0.937500     0.00390625
       57           0.062500   0.937500   0.062500     0.00390625
       58           0.062500   0.937500   0.187500     0.00390625
       59           0.062500   0.937500   0.312500     0.00390625
       60           0.062500   0.937500   0.437500     0.00390625
       61           0.062500   0.937500   0.562500     0.00390625
       62           0.062500   0.937500   0.687500     0.00390625
       63           0.062500   0.937500   0.812500     0.00390625
       64           0.062500   0.937500   0.937500     0.00390625
       65           0.187500   0.062500   0.062500     0.00390625
       66           0.187500   0.062500   0.187500     0.00390625
       67           0.187500   0.062500   0.312500     0.00390625
       68           0.187500   0.062500   0.437500     0.00390625
       69           0.187500   0.062500   0.562500     0.00390625
       70           0.187500   0.062500   0.687500     0.00390625
       71           0.187500   0.062500   0.812500     0.00390625
       72           0.187500   0.062500   0.937500     0.00390625
       73           0.187500   0.187500   0.062500     0.00390625
       74           0.187500   0.187500   0.187500     0.00390625
       75           0.187500   0.187500   0.312500     0.00390625
       76           0.187500   0.187500   0.437500     0.00390625
       77           0.187500   0.187500   0.562500     0.00390625
       78           0.187500   0.187500   0.687500     0.00390625
       79           0.187500   0.187500   0.812500     0.00390625
       80           0.187500   0.187500   0.937500     0.00390625
       81           0.187500   0.312500   0.062500     0.00390625
       82           0.187500   0.312500   0.187500     0.00390625
       83           0.187500   0.312500   0.312500     0.00390625
       84           0.187500   0.312500   0.437500     0.00390625
       85           0.187500   0.312500   0.562500     0.00390625
       86           0.187500   0.312500   0.687500     0.00390625
       87           0.187500   0.312500   0.812500     0.00390625
       88           0.187500   0.312500   0.937500     0.00390625
       89           0.187500   0.437500   0.062500     0.00390625
       90           0.187500   0.437500   0.187500     0.00390625
       91           0.187500   0.437500   0.312500     0.00390625
       92           0.187500   0.437500   0.437500     0.00390625
       93           0.187500   0.437500   0.562500     0.00390625
       94           0.187500   0.437500   0.687500     0.00390625
       95           0.187500   0.437500   0.812500     0.00390625
       96           0.187500   0.437500   0.937500     0.00390625
       97           0.187500   0.562500   0.062500     0.00390625
       98           0.187500   0.562500   0.187500     0.00390625
       99           0.187500   0.562500   0.312500     0.00390625
      100           0.187500   0.562500   0.437500     0.00390625
      101           0.187500   0.562500   0.562500     0.00390625
      102           0.187500   0.562500   0.687500     0.00390625
      103           0.187500   0.562500   0.812500     0.00390625
      104           0.187500   0.562500   0.937500     0.00390625
      105           0.187500   0.687500   0.062500     0.00390625
      106           0.187500   0.687500   0.187500     0.00390625
      107           0.187500   0.687500   0.312500     0.00390625
      108           0.187500   0.687500   0.437500     0.00390625
      109           0.187500   0.687500   0.562500     0.00390625
      110           0.187500   0.687500   0.687500     0.00390625
      111           0.187500   0.687500   0.812500     0.00390625
      112           0.187500   0.687500   0.937500     0.00390625
      113           0.187500   0.812500   0.062500     0.00390625
      114           0.187500   0.812500   0.187500     0.00390625
      115           0.187500   0.812500   0.312500     0.00390625
      116           0.187500   0.812500   0.437500     0.00390625
      117           0.187500   0.812500   0.562500     0.00390625
      118           0.187500   0.812500   0.687500     0.00390625
      119           0.187500   0.812500   0.812500     0.00390625
      120           0.187500   0.812500   0.937500     0.00390625
      121           0.187500   0.937500   0.062500     0.00390625
      122           0.187500   0.937500   0.187500     0.00390625
      123           0.187500   0.937500   0.312500     0.00390625
      124           0.187500   0.937500   0.437500     0.00390625
      125           0.187500   0.937500   0.562500     0.00390625
      126           0.187500   0.937500   0.687500     0.00390625
      127           0.187500   0.937500   0.812500     0.00390625
      128           0.187500   0.937500   0.937500     0.00390625
      129           0.312500   0.062500   0.062500     0.00390625
      130           0.312500   0.062500   0.187500     0.00390625
      131           0.312500   0.062500   0.312500     0.00390625
      132           0.312500   0.062500   0.437500     0.00390625
      133           0.312500   0.062500   0.562500     0.00390625
      134           0.312500   0.062500   0.687500     0.00390625
      135           0.312500   0.062500   0.812500     0.00390625
      136           0.312500   0.062500   0.937500     0.00390625
      137           0.312500   0.187500   0.062500     0.00390625
      138           0.312500   0.187500   0.187500     0.00390625
      139           0.312500   0.187500   0.312500     0.00390625
      140           0.312500   0.187500   0.437500     0.00390625
      141           0.312500   0.187500   0.562500     0.00390625
      142           0.312500   0.187500   0.687500     0.00390625
      143           0.312500   0.187500   0.812500     0.00390625
      144           0.312500   0.187500   0.937500     0.00390625
      145           0.312500   0.312500   0.062500     0.00390625
      146           0.312500   0.312500   0.187500     0.00390625
      147           0.312500   0.312500   0.312500     0.00390625
      148           0.312500   0.312500   0.437500     0.00390625
      149           0.312500   0.312500   0.562500     0.00390625
      150           0.312500   0.312500   0.687500     0.00390625
      151           0.312500   0.312500   0.812500     0.00390625
      152           0.312500   0.312500   0.937500     0.00390625
      153           0.312500   0.437500   0.062500     0.00390625
      154           0.312500   0.437500   0.187500     0.00390625
      155           0.312500   0.437500   0.312500     0.00390625
      156           0.312500   0.437500   0.437500     0.00390625
      157           0.312500   0.437500   0.562500     0.00390625
      158           0.312500   0.437500   0.687500     0.00390625
      159           0.312500   0.437500   0.812500     0.00390625
      160           0.312500   0.437500   0.937500     0.00390625
      161           0.312500   0.562500   0.062500     0.00390625
      162           0.312500   0.562500   0.187500     0.00390625
      163           0.312500   0.562500   0.312500     0.00390625
      164           0.312500   0.562500   0.437500     0.00390625
      165           0.312500   0.562500   0.562500     0.00390625
      166           0.312500   0.562500   0.687500     0.00390625
      167           0.312500   0.562500   0.812500     0.00390625
      168           0.312500   0.562500   0.937500     0.00390625
      169           0.312500   0.687500   0.062500     0.00390625
      170           0.312500   0.687500   0.187500     0.00390625
      171           0.312500   0.687500   0.312500     0.00390625
      172           0.312500   0.687500   0.437500     0.00390625
      173           0.312500   0.687500   0.562500     0.00390625
      174           0.312500   0.687500   0.687500     0.00390625
      175           0.312500   0.687500   0.812500     0.00390625
      176           0.312500   0.687500   0.937500     0.00390625
      177           0.312500   0.812500   0.062500     0.00390625
      178           0.312500   0.812500   0.187500     0.00390625
      179           0.312500   0.812500   0.312500     0.00390625
      180           0.312500   0.812500   0.437500     0.00390625
      181           0.312500   0.812500   0.562500     0.00390625
      182           0.312500   0.812500   0.687500     0.00390625
      183           0.312500   0.812500   0.812500     0.00390625
      184           0.312500   0.812500   0.937500     0.00390625
      185           0.312500   0.937500   0.062500     0.00390625
      186           0.312500   0.937500   0.187500     0.00390625
      187           0.312500   0.937500   0.312500     0.00390625
      188           0.312500   0.937500   0.437500     0.00390625
      189           0.312500   0.937500   0.562500     0.00390625
      190           0.312500   0.937500   0.687500     0.00390625
      191           0.312500   0.937500   0.812500     0.00390625
      192           0.312500   0.937500   0.937500     0.00390625
      193           0.437500   0.062500   0.062500     0.00390625
      194           0.437500   0.062500   0.187500     0.00390625
      195           0.437500   0.062500   0.312500     0.00390625
      196           0.437500   0.062500   0.437500     0.00390625
      197           0.437500   0.062500   0.562500     0.00390625
      198           0.437500   0.062500   0.687500     0.00390625
      199           0.437500   0.062500   0.812500     0.00390625
      200           0.437500   0.062500   0.937500     0.00390625
      201           0.437500   0.187500   0.062500     0.00390625
      202           0.437500   0.187500   0.187500     0.00390625
      203           0.437500   0.187500   0.312500     0.00390625
      204           0.437500   0.187500   0.437500     0.00390625
      205           0.437500   0.187500   0.562500     0.00390625
      206           0.437500   0.187500   0.687500     0.00390625
      207           0.437500   0.187500   0.812500     0.00390625
      208           0.437500   0.187500   0.937500     0.00390625
      209           0.437500   0.312500   0.062500     0.00390625
      210           0.437500   0.312500   0.187500     0.00390625
      211           0.437500   0.312500   0.312500     0.00390625
      212           0.437500   0.312500   0.437500     0.00390625
      213           0.437500   0.312500   0.562500     0.00390625
      214           0.437500   0.312500   0.687500     0.00390625
      215           0.437500   0.312500   0.812500     0.00390625
      216           0.437500   0.312500   0.937500     0.00390625
      217           0.437500   0.437500   0.062500     0.00390625
      218           0.437500   0.437500   0.187500     0.00390625
      219           0.437500   0.437500   0.312500     0.00390625
      220           0.437500   0.437500   0.437500     0.00390625
      221           0.437500   0.437500   0.562500     0.00390625
      222           0.437500   0.437500   0.687500     0.00390625
      223           0.437500   0.437500   0.812500     0.00390625
      224           0.437500   0.437500   0.937500     0.00390625
      225           0.437500   0.562500   0.062500     0.00390625
      226           0.437500   0.562500   0.187500     0.00390625
      227           0.437500   0.562500   0.312500     0.00390625
      228           0.437500   0.562500   0.437500     0.00390625
      229           0.437500   0.562500   0.562500     0.00390625
      230           0.437500   0.562500   0.687500     0.00390625
      231           0.437500   0.562500   0.812500     0.00390625
      232           0.437500   0.562500   0.937500     0.00390625
      233           0.437500   0.687500   0.062500     0.00390625
      234           0.437500   0.687500   0.187500     0.00390625
      235           0.437500   0.687500   0.312500     0.00390625
      236           0.437500   0.687500   0.437500     0.00390625
      237           0.437500   0.687500   0.562500     0.00390625
      238           0.437500   0.687500   0.687500     0.00390625
      239           0.437500   0.687500   0.812500     0.00390625
      240           0.437500   0.687500   0.937500     0.00390625
      241           0.437500   0.812500   0.062500     0.00390625
      242           0.437500   0.812500   0.187500     0.00390625
      243           0.437500   0.812500   0.312500     0.00390625
      244           0.437500   0.812500   0.437500     0.00390625
      245           0.437500   0.812500   0.562500     0.00390625
      246           0.437500   0.812500   0.687500     0.00390625
      247           0.437500   0.812500   0.812500     0.00390625
      248           0.437500   0.812500   0.937500     0.00390625
      249           0.437500   0.937500   0.062500     0.00390625
      250           0.437500   0.937500   0.187500     0.00390625
      251           0.437500   0.937500   0.312500     0.00390625
      252           0.437500   0.937500   0.437500     0.00390625
      253           0.437500   0.937500   0.562500     0.00390625
      254           0.437500   0.937500   0.687500     0.00390625
      255           0.437500   0.937500   0.812500     0.00390625
      256           0.437500   0.937500   0.937500     0.00390625
--------------------------------------------------------------------------------


********************************************************************************
*  General input information                                                   *
********************************************************************************

  Species output for all configurations : 

--------------------------------------------------------------------------------
  Species    Type    Atomic    Atomic    Charge       Radii (Angs)     Library
                     Number     Mass       (e)     Cova   Ionic  VDW   Symbol
--------------------------------------------------------------------------------
    C        Core        6      12.01   0.000000   0.770  0.000  1.530          
--------------------------------------------------------------------------------


  Lattice summation method               =    Ewald          (3-D)
                                         =    Parry          (2-D)
                                         =    Saunders et al (1-D)
  Accuracy factor for lattice sums       =   12.000


  Time limit = Infinity

  Maximum range for interatomic potentials =    100000.000000 Angstroms

  Brenner et al 2002 potential to be used with explicit splines for P


********************************************************************************
*  Output for configuration   1                                                *
********************************************************************************


  Components of energy : 

--------------------------------------------------------------------------------
  Interatomic potentials     =           0.00000000 eV    
  Brenner potentials         =         -58.95035393 eV    
  Monopole - monopole (real) =           0.00000000 eV    
  Monopole - monopole (recip)=           0.00000000 eV    
  Monopole - monopole (total)=           0.00000000 eV    
--------------------------------------------------------------------------------
  Total lattice energy       =         -58.95035393 eV    
--------------------------------------------------------------------------------
  Total lattice energy       =           -5687.8080 kJ/(mole unit cells)
--------------------------------------------------------------------------------


  Elastic Constant Matrix: (Units=GPa)

-------------------------------------------------------------------------------
  Indices      1         2         3         4         5         6    
-------------------------------------------------------------------------------
       1   1045.1752  114.0258  114.0258   -0.0000   -0.0000   -0.0000
       2    114.0258 1045.1752  114.0258   -0.0000   -0.0000   -0.0000
       3    114.0258  114.0258 1045.1752   -0.0000   -0.0000   -0.0000
       4     -0.0000   -0.0000   -0.0000  698.6135   -0.0000   -0.0000
       5     -0.0000   -0.0000   -0.0000   -0.0000  698.6135   -0.0000
       6     -0.0000   -0.0000   -0.0000   -0.0000   -0.0000  698.6135
-------------------------------------------------------------------------------

  Elastic Constant Tensor Eigenvalues: (Units=GPa)

-------------------------------------------------------------------------------
     1 =   698.6135     2 =   698.6135     3 =   698.6135
     4 =   931.1494     5 =   931.1494     6 =  1273.2268
-------------------------------------------------------------------------------


  Elastic Compliance Matrix: (Units=1/GPa)

-------------------------------------------------------------------------------
  Indices      1         2         3         4         5         6    
-------------------------------------------------------------------------------
       1    0.000978 -0.000096 -0.000096  0.000000  0.000000 -0.000000
       2   -0.000096  0.000978 -0.000096  0.000000  0.000000 -0.000000
       3   -0.000096 -0.000096  0.000978  0.000000  0.000000  0.000000
       4    0.000000  0.000000  0.000000  0.001431  0.000000  0.000000
       5    0.000000  0.000000  0.000000  0.000000  0.001431  0.000000
       6   -0.000000 -0.000000  0.000000  0.000000  0.000000  0.001431
-------------------------------------------------------------------------------

  Mechanical properties :

-------------------------------------------------------------------------------
  Convention :                    Reuss         Voigt         Hill
-------------------------------------------------------------------------------
  Bulk  Modulus (GPa)     =     424.40894     424.40894     424.40894
  Shear Modulus (GPa)     =     582.07312     605.39797     593.73555
-------------------------------------------------------------------------------
  Velocity S-wave (km/s)  =      12.93210      13.18867      13.06101
  Velocity P-wave (km/s)  =      18.57217      18.81119      18.69206
-------------------------------------------------------------------------------
  Compressibility (1/GPa) =    0.00235622
-------------------------------------------------------------------------------
  Stress axis :                     x             y             z
-------------------------------------------------------------------------------
  Youngs Moduli (GPa)     =    1022.74273    1022.74273    1022.74273
-------------------------------------------------------------------------------
  Poissons Ratio (x)      =                     0.09837       0.09837
  Poissons Ratio (y)      =       0.09837                     0.09837
  Poissons Ratio (z)      =       0.09837       0.09837
-------------------------------------------------------------------------------


  Piezoelectric Strain Matrix: (Units=C/m**2)

-------------------------------------------------------------------------------
  Indices      1         2         3         4         5         6    
-------------------------------------------------------------------------------
       x    -0.00000  -0.00000  -0.00000  -0.00000  -0.00000  -0.00000
       y    -0.00000  -0.00000  -0.00000  -0.00000  -0.00000  -0.00000
       z    -0.00000  -0.00000  -0.00000  -0.00000  -0.00000  -0.00000
-------------------------------------------------------------------------------


  Piezoelectric Stress Matrix: (Units=10**-11 C/N)

-------------------------------------------------------------------------------
  Indices      1         2         3         4         5         6    
-------------------------------------------------------------------------------
       x     0.00000   0.00000   0.00000   0.00000   0.00000   0.00000
       y     0.00000   0.00000   0.00000   0.00000   0.00000   0.00000
       z     0.00000   0.00000   0.00000   0.00000   0.00000   0.00000
-------------------------------------------------------------------------------


  Static dielectric constant tensor : 

-------------------------------------------------------------------------------
              x         y         z
-------------------------------------------------------------------------------
       x     1.00000   0.00000   0.00000
       y     0.00000   1.00000   0.00000
       z     0.00000   0.00000   1.00000
--------------------------------------------------------------------------------

  Static refractive indices : 

-------------------------------------------------------------------------------
    1 =    1.00000      2 =    1.00000      3 =    1.00000
-------------------------------------------------------------------------------


  Phonon Calculation : 

  Number of k points for this configuration =      256

--------------------------------------------------------------------------------
  K point      1 =   0.062500  0.062500  0.062500  Weight =    0.004
--------------------------------------------------------------------------------

  Frequencies (cm-1) [NB: Negative implies an imaginary mode]:

  125.64  125.64  197.95 1044.77 1044.77 1044.77 1057.00 1057.00 1057.00
 1200.20 1200.20 1200.20 1243.62 1243.62 1243.62 1269.29 1269.29 1269.29
 1334.82 1334.82 1334.82 1547.08 1547.08 1551.42


--------------------------------------------------------------------------------
  K point      2 =   0.062500  0.062500  0.187500  Weight =    0.004
--------------------------------------------------------------------------------

  Frequencies (cm-1) [NB: Negative implies an imaginary mode]:

  246.41  262.52  355.08  957.15  965.65 1037.22 1037.22 1071.56 1071.56
 1117.60 1154.74 1154.74 1228.55 1228.55 1301.78 1301.78 1305.59 1312.59
 1351.76 1351.76 1400.99 1534.95 1535.50 1547.85


--------------------------------------------------------------------------------
  K point      3 =   0.062500  0.062500  0.312500  Weight =    0.004
--------------------------------------------------------------------------------

  Frequencies (cm-1) [NB: Negative implies an imaginary mode]:

  403.65  414.71  526.62  839.80  844.96  994.44 1037.01 1037.01 1085.48
 1085.48 1112.15 1112.15 1204.74 1204.74 1331.93 1331.93 1368.47 1368.47
 1372.32 1376.84 1454.16 1512.24 1512.29 1538.01


--------------------------------------------------------------------------------
  K point      4 =   0.062500  0.062500  0.437500  Weight =    0.004
--------------------------------------------------------------------------------

  Frequencies (cm-1) [NB: Negative implies an imaginary mode]:

  560.10  564.63  694.52  707.45  708.41  851.95 1045.50 1045.50 1076.17
 1076.17 1099.41 1099.41 1188.25 1188.25 1348.66 1348.66 1377.66 1377.66
 1430.38 1433.19 1477.20 1478.47 1493.38 1520.55


--------------------------------------------------------------------------------
  K point      5 =   0.062500  0.062500  0.562500  Weight =    0.004
--------------------------------------------------------------------------------

  Frequencies (cm-1) [NB: Negative implies an imaginary mode]:

  560.10  564.63  694.52  707.45  708.41  851.95 1045.50 1045.50 1076.17
 1076.17 1099.41 1099.41 1188.25 1188.25 1348.66 1348.66 1377.66 1377.66
 1430.38 1433.19 1477.20 1478.47 1493.38 1520.55


--------------------------------------------------------------------------------
  K point      6 =   0.062500  0.062500  0.687500  Weight =    0.004
--------------------------------------------------------------------------------

  Frequencies (cm-1) [NB: Negative implies an imaginary mode]:

  403.65  414.71  526.62  839.80  844.96  994.44 1037.01 1037.01 1085.48
 1085.48 1112.15 1112.15 1204.74 1204.74 1331.93 1331.93 1368.47 1368.47
 1372.32 1376.84 1454.16 1512.24 1512.29 1538.01


--------------------------------------------------------------------------------
  K point      7 =   0.062500  0.062500  0.812500  Weight =    0.004
--------------------------------------------------------------------------------

  Frequencies (cm-1) [NB: Negative implies an imaginary mode]:

  246.41  262.52  355.08  957.15  965.65 1037.22 1037.22 1071.56 1071.56
 1117.60 1154.74 1154.74 1228.55 1228.55 1301.78 1301.78 1305.59 1312.59
 1351.76 1351.76 1400.99 1534.95 1535.50 1547.85


--------------------------------------------------------------------------------
  K point      8 =   0.062500  0.062500  0.937500  Weight =    0.004
--------------------------------------------------------------------------------

  Frequencies (cm-1) [NB: Negative implies an imaginary mode]:

  125.64  125.64  197.95 1044.77 1044.77 1044.77 1057.00 1057.00 1057.00
 1200.20 1200.20 1200.20 1243.62 1243.62 1243.62 1269.29 1269.29 1269.29
 1334.82 1334.82 1334.82 1547.08 1547.08 1551.42


--------------------------------------------------------------------------------
  K point      9 =   0.062500  0.187500  0.062500  Weight =    0.004
--------------------------------------------------------------------------------

  Frequencies (cm-1) [NB: Negative implies an imaginary mode]:

  246.41  262.52  355.08  957.15  965.65 1037.22 1037.22 1071.56 1071.56
 1117.60 1154.74 1154.74 1228.55 1228.55 1301.78 1301.78 1305.59 1312.59
 1351.76 1351.76 1400.99 1534.95 1535.50 1547.85


--------------------------------------------------------------------------------
  K point     10 =   0.062500  0.187500  0.187500  Weight =    0.004
--------------------------------------------------------------------------------

  Frequencies (cm-1) [NB: Negative implies an imaginary mode]:

  294.57  345.84  474.31  954.95  954.95  980.40  980.40 1002.54 1092.94
 1095.00 1095.00 1127.49 1260.65 1271.42 1298.99 1298.99 1336.22 1336.22
 1380.01 1396.63 1396.63 1521.02 1524.90 1545.42


--------------------------------------------------------------------------------
  K point     11 =   0.062500  0.187500  0.312500  Weight =    0.004
--------------------------------------------------------------------------------

  Frequencies (cm-1) [NB: Negative implies an imaginary mode]:

  411.12  471.38  614.78  836.28  865.60  955.80  975.21 1000.24 1000.24
 1074.77 1077.42 1114.89 1246.84 1285.19 1304.06 1364.04 1365.28 1387.62
 1388.62 1398.86 1443.92 1497.62 1504.33 1534.77


--------------------------------------------------------------------------------
  K point     12 =   0.062500  0.187500  0.437500  Weight =    0.004
--------------------------------------------------------------------------------

  Frequencies (cm-1) [NB: Negative implies an imaginary mode]:

  553.75  606.51  699.23  739.76  754.37  884.60  956.09  960.06 1023.02
 1048.81 1075.98 1095.93 1251.16 1267.60 1337.76 1362.76 1394.96 1403.76
 1420.72 1435.09 1464.63 1474.18 1483.95 1514.41


--------------------------------------------------------------------------------
  K point     13 =   0.062500  0.187500  0.562500  Weight =    0.004
--------------------------------------------------------------------------------

  Frequencies (cm-1) [NB: Negative implies an imaginary mode]:

  553.75  606.51  699.23  739.76  754.37  884.60  956.09  960.06 1023.02
 1048.81 1075.98 1095.93 1251.16 1267.60 1337.76 1362.76 1394.96 1403.76
 1420.72 1435.09 1464.63 1474.18 1483.95 1514.41


--------------------------------------------------------------------------------
  K point     14 =   0.062500  0.187500  0.687500  Weight =    0.004
--------------------------------------------------------------------------------

  Frequencies (cm-1) [NB: Negative implies an imaginary mode]:

  411.12  471.38  614.78  836.28  865.60  955.80  975.21 1000.24 1000.24
 1074.77 1077.42 1114.89 1246.84 1285.19 1304.06 1364.04 1365.28 1387.62
 1388.62 1398.86 1443.92 1497.62 1504.33 1534.77


--------------------------------------------------------------------------------
  K point     15 =   0.062500  0.187500  0.812500  Weight =    0.004
--------------------------------------------------------------------------------

  Frequencies (cm-1) [NB: Negative implies an imaginary mode]:

  294.57  345.84  474.31  954.95  954.95  980.40  980.40 1002.54 1092.94
 1095.00 1095.00 1127.49 1260.65 1271.42 1298.99 1298.99 1336.22 1336.22
 1380.01 1396.63 1396.63 1521.02 1524.90 1545.42


--------------------------------------------------------------------------------
  K point     16 =   0.062500  0.187500  0.937500  Weight =    0.004
--------------------------------------------------------------------------------

  Frequencies (cm-1) [NB: Negative implies an imaginary mode]:

  246.41  262.52  355.08  957.15  965.65 1037.22 1037.22 1071.56 1071.56
 1117.60 1154.74 1154.74 1228.55 1228.55 1301.78 1301.78 1305.59 1312.59
 1351.76 1351.76 1400.99 1534.95 1535.50 1547.85


--------------------------------------------------------------------------------
  K point     17 =   0.062500  0.312500  0.062500  Weight =    0.004
--------------------------------------------------------------------------------

  Frequencies (cm-1) [NB: Negative implies an imaginary mode]:

  403.65  414.71  526.62  839.80  844.96  994.44 1037.01 1037.01 1085.48
 1085.48 1112.15 1112.15 1204.74 1204.74 1331.93 1331.93 1368.47 1368.47
 1372.32 1376.84 1454.16 1512.24 1512.29 1538.01


--------------------------------------------------------------------------------
  K point     18 =   0.062500  0.312500  0.187500  Weight =    0.004
--------------------------------------------------------------------------------

  Frequencies (cm-1) [NB: Negative implies an imaginary mode]:

  411.12  471.38  614.78  836.28  865.60  955.80  975.21 1000.24 1000.24
 1074.77 1077.42 1114.89 1246.84 1285.19 1304.06 1364.04 1365.28 1387.62
 1388.62 1398.86 1443.92 1497.62 1504.33 1534.77


--------------------------------------------------------------------------------
  K point     19 =   0.062500  0.312500  0.312500  Weight =    0.004
--------------------------------------------------------------------------------

  Frequencies (cm-1) [NB: Negative implies an imaginary mode]:

  472.69  568.62  723.41  834.69  834.69  904.40  904.40  917.00 1012.84
 1012.84 1043.62 1098.92 1297.66 1301.57 1351.58 1351.58 1403.92 1403.92
 1418.04 1423.24 1423.24 1473.68 1488.67 1522.66


--------------------------------------------------------------------------------
  K point     20 =   0.062500  0.312500  0.437500  Weight =    0.004
--------------------------------------------------------------------------------

  Frequencies (cm-1) [NB: Negative implies an imaginary mode]:

  578.22  681.62  704.38  796.41  831.44  844.51  871.79  929.83  953.56
 1002.61 1033.72 1064.40 1313.03 1333.04 1350.33 1391.87 1402.71 1418.19
 1424.11 1437.43 1442.35 1464.41 1465.94 1499.14


--------------------------------------------------------------------------------
  K point     21 =   0.062500  0.312500  0.562500  Weight =    0.004
--------------------------------------------------------------------------------

  Frequencies (cm-1) [NB: Negative implies an imaginary mode]:

  578.22  681.62  704.38  796.41  831.44  844.51  871.79  929.83  953.56
 1002.61 1033.72 1064.40 1313.03 1333.04 1350.33 1391.87 1402.71 1418.19
 1424.11 1437.43 1442.35 1464.41 1465.94 1499.14


--------------------------------------------------------------------------------
  K point     22 =   0.062500  0.312500  0.687500  Weight =    0.004
--------------------------------------------------------------------------------

  Frequencies (cm-1) [NB: Negative implies an imaginary mode]:

  472.69  568.62  723.41  834.69  834.69  904.40  904.40  917.00 1012.84
 1012.84 1043.62 1098.92 1297.66 1301.57 1351.58 1351.58 1403.92 1403.92
 1418.04 1423.24 1423.24 1473.68 1488.67 1522.66


--------------------------------------------------------------------------------
  K point     23 =   0.062500  0.312500  0.812500  Weight =    0.004
--------------------------------------------------------------------------------

  Frequencies (cm-1) [NB: Negative implies an imaginary mode]:

  411.12  471.38  614.78  836.28  865.60  955.80  975.21 1000.24 1000.24
 1074.77 1077.42 1114.89 1246.84 1285.19 1304.06 1364.04 1365.28 1387.62
 1388.62 1398.86 1443.92 1497.62 1504.33 1534.77


--------------------------------------------------------------------------------
  K point     24 =   0.062500  0.312500  0.937500  Weight =    0.004
--------------------------------------------------------------------------------

  Frequencies (cm-1) [NB: Negative implies an imaginary mode]:

  403.65  414.71  526.62  839.80  844.96  994.44 1037.01 1037.01 1085.48
 1085.48 1112.15 1112.15 1204.74 1204.74 1331.93 1331.93 1368.47 1368.47
 1372.32 1376.84 1454.16 1512.24 1512.29 1538.01


--------------------------------------------------------------------------------
  K point     25 =   0.062500  0.437500  0.062500  Weight =    0.004
--------------------------------------------------------------------------------

  Frequencies (cm-1) [NB: Negative implies an imaginary mode]:

  560.10  564.63  694.52  707.45  708.41  851.95 1045.50 1045.50 1076.17
 1076.17 1099.41 1099.41 1188.25 1188.25 1348.66 1348.66 1377.66 1377.66
 1430.38 1433.19 1477.20 1478.47 1493.38 1520.55


--------------------------------------------------------------------------------
  K point     26 =   0.062500  0.437500  0.187500  Weight =    0.004
--------------------------------------------------------------------------------

  Frequencies (cm-1) [NB: Negative implies an imaginary mode]:

  553.75  606.51  699.23  739.76  754.37  884.60  956.09  960.06 1023.02
 1048.81 1075.98 1095.93 1251.16 1267.60 1337.76 1362.76 1394.96 1403.76
 1420.72 1435.09 1464.63 1474.18 1483.95 1514.41


--------------------------------------------------------------------------------
  K point     27 =   0.062500  0.437500  0.312500  Weight =    0.004
--------------------------------------------------------------------------------

  Frequencies (cm-1) [NB: Negative implies an imaginary mode]:

  578.22  681.62  704.38  796.41  831.44  844.51  871.79  929.83  953.56
 1002.61 1033.72 1064.40 1313.03 1333.04 1350.33 1391.87 1402.71 1418.19
 1424.11 1437.43 1442.35 1464.41 1465.94 1499.14


--------------------------------------------------------------------------------
  K point     28 =   0.062500  0.437500  0.437500  Weight =    0.004
--------------------------------------------------------------------------------

  Frequencies (cm-1) [NB: Negative implies an imaginary mode]:

  642.30  735.70  735.70  772.90  793.74  867.08  867.08  908.01  939.70
  976.72  976.72 1022.05 1351.42 1378.93 1378.93 1389.26 1413.60 1429.10
 1429.10 1436.05 1442.20 1442.20 1452.67 1473.07


--------------------------------------------------------------------------------
  K point     29 =   0.062500  0.437500  0.562500  Weight =    0.004
--------------------------------------------------------------------------------

  Frequencies (cm-1) [NB: Negative implies an imaginary mode]:

  642.30  735.70  735.70  772.90  793.74  867.08  867.08  908.01  939.70
  976.72  976.72 1022.05 1351.42 1378.93 1378.93 1389.26 1413.60 1429.10
 1429.10 1436.05 1442.20 1442.20 1452.67 1473.07


--------------------------------------------------------------------------------
  K point     30 =   0.062500  0.437500  0.687500  Weight =    0.004
--------------------------------------------------------------------------------

  Frequencies (cm-1) [NB: Negative implies an imaginary mode]:

  578.22  681.62  704.38  796.41  831.44  844.51  871.79  929.83  953.56
 1002.61 1033.72 1064.40 1313.03 1333.04 1350.33 1391.87 1402.71 1418.19
 1424.11 1437.43 1442.35 1464.41 1465.94 1499.14


--------------------------------------------------------------------------------
  K point     31 =   0.062500  0.437500  0.812500  Weight =    0.004
--------------------------------------------------------------------------------

  Frequencies (cm-1) [NB: Negative implies an imaginary mode]:

  553.75  606.51  699.23  739.76  754.37  884.60  956.09  960.06 1023.02
 1048.81 1075.98 1095.93 1251.16 1267.60 1337.76 1362.76 1394.96 1403.76
 1420.72 1435.09 1464.63 1474.18 1483.95 1514.41


--------------------------------------------------------------------------------
  K point     32 =   0.062500  0.437500  0.937500  Weight =    0.004
--------------------------------------------------------------------------------

  Frequencies (cm-1) [NB: Negative implies an imaginary mode]:

  560.10  564.63  694.52  707.45  708.41  851.95 1045.50 1045.50 1076.17
 1076.17 1099.41 1099.41 1188.25 1188.25 1348.66 1348.66 1377.66 1377.66
 1430.38 1433.19 1477.20 1478.47 1493.38 1520.55


--------------------------------------------------------------------------------
  K point     33 =   0.062500  0.562500  0.062500  Weight =    0.004
--------------------------------------------------------------------------------

  Frequencies (cm-1) [NB: Negative implies an imaginary mode]:

  560.10  564.63  694.52  707.45  708.41  851.95 1045.50 1045.50 1076.17
 1076.17 1099.41 1099.41 1188.25 1188.25 1348.66 1348.66 1377.66 1377.66
 1430.38 1433.19 1477.20 1478.47 1493.38 1520.55


--------------------------------------------------------------------------------
  K point     34 =   0.062500  0.562500  0.187500  Weight =    0.004
--------------------------------------------------------------------------------

  Frequencies (cm-1) [NB: Negative implies an imaginary mode]:

  553.75  606.51  699.23  739.76  754.37  884.60  956.09  960.06 1023.02
 1048.81 1075.98 1095.93 1251.16 1267.60 1337.76 1362.76 1394.96 1403.76
 1420.72 1435.09 1464.63 1474.18 1483.95 1514.41


--------------------------------------------------------------------------------
  K point     35 =   0.062500  0.562500  0.312500  Weight =    0.004
--------------------------------------------------------------------------------

  Frequencies (cm-1) [NB: Negative implies an imaginary mode]:

  578.22  681.62  704.38  796.41  831.44  844.51  871.79  929.83  953.56
 1002.61 1033.72 1064.40 1313.03 1333.04 1350.33 1391.87 1402.71 1418.19
 1424.11 1437.43 1442.35 1464.41 1465.94 1499.14


--------------------------------------------------------------------------------
  K point     36 =   0.062500  0.562500  0.437500  Weight =    0.004
--------------------------------------------------------------------------------

  Frequencies (cm-1) [NB: Negative implies an imaginary mode]:

  642.30  735.70  735.70  772.90  793.74  867.08  867.08  908.01  939.70
  976.72  976.72 1022.05 1351.42 1378.93 1378.93 1389.26 1413.60 1429.10
 1429.10 1436.05 1442.20 1442.20 1452.67 1473.07


--------------------------------------------------------------------------------
  K point     37 =   0.062500  0.562500  0.562500  Weight =    0.004
--------------------------------------------------------------------------------

  Frequencies (cm-1) [NB: Negative implies an imaginary mode]:

  642.30  735.70  735.70  772.90  793.74  867.08  867.08  908.01  939.70
  976.72  976.72 1022.05 1351.42 1378.93 1378.93 1389.26 1413.60 1429.10
 1429.10 1436.05 1442.20 1442.20 1452.67 1473.07


--------------------------------------------------------------------------------
  K point     38 =   0.062500  0.562500  0.687500  Weight =    0.004
--------------------------------------------------------------------------------

  Frequencies (cm-1) [NB: Negative implies an imaginary mode]:

  578.22  681.62  704.38  796.41  831.44  844.51  871.79  929.83  953.56
 1002.61 1033.72 1064.40 1313.03 1333.04 1350.33 1391.87 1402.71 1418.19
 1424.11 1437.43 1442.35 1464.41 1465.94 1499.14


--------------------------------------------------------------------------------
  K point     39 =   0.062500  0.562500  0.812500  Weight =    0.004
--------------------------------------------------------------------------------

  Frequencies (cm-1) [NB: Negative implies an imaginary mode]:

  553.75  606.51  699.23  739.76  754.37  884.60  956.09  960.06 1023.02
 1048.81 1075.98 1095.93 1251.16 1267.60 1337.76 1362.76 1394.96 1403.76
 1420.72 1435.09 1464.63 1474.18 1483.95 1514.41


--------------------------------------------------------------------------------
  K point     40 =   0.062500  0.562500  0.937500  Weight =    0.004
--------------------------------------------------------------------------------

  Frequencies (cm-1) [NB: Negative implies an imaginary mode]:

  560.10  564.63  694.52  707.45  708.41  851.95 1045.50 1045.50 1076.17
 1076.17 1099.41 1099.41 1188.25 1188.25 1348.66 1348.66 1377.66 1377.66
 1430.38 1433.19 1477.20 1478.47 1493.38 1520.55


--------------------------------------------------------------------------------
  K point     41 =   0.062500  0.687500  0.062500  Weight =    0.004
--------------------------------------------------------------------------------

  Frequencies (cm-1) [NB: Negative implies an imaginary mode]:

  403.65  414.71  526.62  839.80  844.96  994.44 1037.01 1037.01 1085.48
 1085.48 1112.15 1112.15 1204.74 1204.74 1331.93 1331.93 1368.47 1368.47
 1372.32 1376.84 1454.16 1512.24 1512.29 1538.01


--------------------------------------------------------------------------------
  K point     42 =   0.062500  0.687500  0.187500  Weight =    0.004
--------------------------------------------------------------------------------

  Frequencies (cm-1) [NB: Negative implies an imaginary mode]:

  411.12  471.38  614.78  836.28  865.60  955.80  975.21 1000.24 1000.24
 1074.77 1077.42 1114.89 1246.84 1285.19 1304.06 1364.04 1365.28 1387.62
 1388.62 1398.86 1443.92 1497.62 1504.33 1534.77


--------------------------------------------------------------------------------
  K point     43 =   0.062500  0.687500  0.312500  Weight =    0.004
--------------------------------------------------------------------------------

  Frequencies (cm-1) [NB: Negative implies an imaginary mode]:

  472.69  568.62  723.41  834.69  834.69  904.40  904.40  917.00 1012.84
 1012.84 1043.62 1098.92 1297.66 1301.57 1351.58 1351.58 1403.92 1403.92
 1418.04 1423.24 1423.24 1473.68 1488.67 1522.66


--------------------------------------------------------------------------------
  K point     44 =   0.062500  0.687500  0.437500  Weight =    0.004
--------------------------------------------------------------------------------

  Frequencies (cm-1) [NB: Negative implies an imaginary mode]:

  578.22  681.62  704.38  796.41  831.44  844.51  871.79  929.83  953.56
 1002.61 1033.72 1064.40 1313.03 1333.04 1350.33 1391.87 1402.71 1418.19
 1424.11 1437.43 1442.35 1464.41 1465.94 1499.14


--------------------------------------------------------------------------------
  K point     45 =   0.062500  0.687500  0.562500  Weight =    0.004
--------------------------------------------------------------------------------

  Frequencies (cm-1) [NB: Negative implies an imaginary mode]:

  578.22  681.62  704.38  796.41  831.44  844.51  871.79  929.83  953.56
 1002.61 1033.72 1064.40 1313.03 1333.04 1350.33 1391.87 1402.71 1418.19
 1424.11 1437.43 1442.35 1464.41 1465.94 1499.14


--------------------------------------------------------------------------------
  K point     46 =   0.062500  0.687500  0.687500  Weight =    0.004
--------------------------------------------------------------------------------

  Frequencies (cm-1) [NB: Negative implies an imaginary mode]:

  472.69  568.62  723.41  834.69  834.69  904.40  904.40  917.00 1012.84
 1012.84 1043.62 1098.92 1297.66 1301.57 1351.58 1351.58 1403.92 1403.92
 1418.04 1423.24 1423.24 1473.68 1488.67 1522.66


--------------------------------------------------------------------------------
  K point     47 =   0.062500  0.687500  0.812500  Weight =    0.004
--------------------------------------------------------------------------------

  Frequencies (cm-1) [NB: Negative implies an imaginary mode]:

  411.12  471.38  614.78  836.28  865.60  955.80  975.21 1000.24 1000.24
 1074.77 1077.42 1114.89 1246.84 1285.19 1304.06 1364.04 1365.28 1387.62
 1388.62 1398.86 1443.92 1497.62 1504.33 1534.77


--------------------------------------------------------------------------------
  K point     48 =   0.062500  0.687500  0.937500  Weight =    0.004
--------------------------------------------------------------------------------

  Frequencies (cm-1) [NB: Negative implies an imaginary mode]:

  403.65  414.71  526.62  839.80  844.96  994.44 1037.01 1037.01 1085.48
 1085.48 1112.15 1112.15 1204.74 1204.74 1331.93 1331.93 1368.47 1368.47
 1372.32 1376.84 1454.16 1512.24 1512.29 1538.01


--------------------------------------------------------------------------------
  K point     49 =   0.062500  0.812500  0.062500  Weight =    0.004
--------------------------------------------------------------------------------

  Frequencies (cm-1) [NB: Negative implies an imaginary mode]:

  246.41  262.52  355.08  957.15  965.65 1037.22 1037.22 1071.56 1071.56
 1117.60 1154.74 1154.74 1228.55 1228.55 1301.78 1301.78 1305.59 1312.59
 1351.76 1351.76 1400.99 1534.95 1535.50 1547.85


--------------------------------------------------------------------------------
  K point     50 =   0.062500  0.812500  0.187500  Weight =    0.004
--------------------------------------------------------------------------------

  Frequencies (cm-1) [NB: Negative implies an imaginary mode]:

  294.57  345.84  474.31  954.95  954.95  980.40  980.40 1002.54 1092.94
 1095.00 1095.00 1127.49 1260.65 1271.42 1298.99 1298.99 1336.22 1336.22
 1380.01 1396.63 1396.63 1521.02 1524.90 1545.42


--------------------------------------------------------------------------------
  K point     51 =   0.062500  0.812500  0.312500  Weight =    0.004
--------------------------------------------------------------------------------

  Frequencies (cm-1) [NB: Negative implies an imaginary mode]:

  411.12  471.38  614.78  836.28  865.60  955.80  975.21 1000.24 1000.24
 1074.77 1077.42 1114.89 1246.84 1285.19 1304.06 1364.04 1365.28 1387.62
 1388.62 1398.86 1443.92 1497.62 1504.33 1534.77


--------------------------------------------------------------------------------
  K point     52 =   0.062500  0.812500  0.437500  Weight =    0.004
--------------------------------------------------------------------------------

  Frequencies (cm-1) [NB: Negative implies an imaginary mode]:

  553.75  606.51  699.23  739.76  754.37  884.60  956.09  960.06 1023.02
 1048.81 1075.98 1095.93 1251.16 1267.60 1337.76 1362.76 1394.96 1403.76
 1420.72 1435.09 1464.63 1474.18 1483.95 1514.41


--------------------------------------------------------------------------------
  K point     53 =   0.062500  0.812500  0.562500  Weight =    0.004
--------------------------------------------------------------------------------

  Frequencies (cm-1) [NB: Negative implies an imaginary mode]:

  553.75  606.51  699.23  739.76  754.37  884.60  956.09  960.06 1023.02
 1048.81 1075.98 1095.93 1251.16 1267.60 1337.76 1362.76 1394.96 1403.76
 1420.72 1435.09 1464.63 1474.18 1483.95 1514.41


--------------------------------------------------------------------------------
  K point     54 =   0.062500  0.812500  0.687500  Weight =    0.004
--------------------------------------------------------------------------------

  Frequencies (cm-1) [NB: Negative implies an imaginary mode]:

  411.12  471.38  614.78  836.28  865.60  955.80  975.21 1000.24 1000.24
 1074.77 1077.42 1114.89 1246.84 1285.19 1304.06 1364.04 1365.28 1387.62
 1388.62 1398.86 1443.92 1497.62 1504.33 1534.77


--------------------------------------------------------------------------------
  K point     55 =   0.062500  0.812500  0.812500  Weight =    0.004
--------------------------------------------------------------------------------

  Frequencies (cm-1) [NB: Negative implies an imaginary mode]:

  294.57  345.84  474.31  954.95  954.95  980.40  980.40 1002.54 1092.94
 1095.00 1095.00 1127.49 1260.65 1271.42 1298.99 1298.99 1336.22 1336.22
 1380.01 1396.63 1396.63 1521.02 1524.90 1545.42


--------------------------------------------------------------------------------
  K point     56 =   0.062500  0.812500  0.937500  Weight =    0.004
--------------------------------------------------------------------------------

  Frequencies (cm-1) [NB: Negative implies an imaginary mode]:

  246.41  262.52  355.08  957.15  965.65 1037.22 1037.22 1071.56 1071.56
 1117.60 1154.74 1154.74 1228.55 1228.55 1301.78 1301.78 1305.59 1312.59
 1351.76 1351.76 1400.99 1534.95 1535.50 1547.85


--------------------------------------------------------------------------------
  K point     57 =   0.062500  0.937500  0.062500  Weight =    0.004
--------------------------------------------------------------------------------

  Frequencies (cm-1) [NB: Negative implies an imaginary mode]:

  125.64  125.64  197.95 1044.77 1044.77 1044.77 1057.00 1057.00 1057.00
 1200.20 1200.20 1200.20 1243.62 1243.62 1243.62 1269.29 1269.29 1269.29
 1334.82 1334.82 1334.82 1547.08 1547.08 1551.42


--------------------------------------------------------------------------------
  K point     58 =   0.062500  0.937500  0.187500  Weight =    0.004
--------------------------------------------------------------------------------

  Frequencies (cm-1) [NB: Negative implies an imaginary mode]:

  246.41  262.52  355.08  957.15  965.65 1037.22 1037.22 1071.56 1071.56
 1117.60 1154.74 1154.74 1228.55 1228.55 1301.78 1301.78 1305.59 1312.59
 1351.76 1351.76 1400.99 1534.95 1535.50 1547.85


--------------------------------------------------------------------------------
  K point     59 =   0.062500  0.937500  0.312500  Weight =    0.004
--------------------------------------------------------------------------------

  Frequencies (cm-1) [NB: Negative implies an imaginary mode]:

  403.65  414.71  526.62  839.80  844.96  994.44 1037.01 1037.01 1085.48
 1085.48 1112.15 1112.15 1204.74 1204.74 1331.93 1331.93 1368.47 1368.47
 1372.32 1376.84 1454.16 1512.24 1512.29 1538.01


--------------------------------------------------------------------------------
  K point     60 =   0.062500  0.937500  0.437500  Weight =    0.004
--------------------------------------------------------------------------------

  Frequencies (cm-1) [NB: Negative implies an imaginary mode]:

  560.10  564.63  694.52  707.45  708.41  851.95 1045.50 1045.50 1076.17
 1076.17 1099.41 1099.41 1188.25 1188.25 1348.66 1348.66 1377.66 1377.66
 1430.38 1433.19 1477.20 1478.47 1493.38 1520.55


--------------------------------------------------------------------------------
  K point     61 =   0.062500  0.937500  0.562500  Weight =    0.004
--------------------------------------------------------------------------------

  Frequencies (cm-1) [NB: Negative implies an imaginary mode]:

  560.10  564.63  694.52  707.45  708.41  851.95 1045.50 1045.50 1076.17
 1076.17 1099.41 1099.41 1188.25 1188.25 1348.66 1348.66 1377.66 1377.66
 1430.38 1433.19 1477.20 1478.47 1493.38 1520.55


--------------------------------------------------------------------------------
  K point     62 =   0.062500  0.937500  0.687500  Weight =    0.004
--------------------------------------------------------------------------------

  Frequencies (cm-1) [NB: Negative implies an imaginary mode]:

  403.65  414.71  526.62  839.80  844.96  994.44 1037.01 1037.01 1085.48
 1085.48 1112.15 1112.15 1204.74 1204.74 1331.93 1331.93 1368.47 1368.47
 1372.32 1376.84 1454.16 1512.24 1512.29 1538.01


--------------------------------------------------------------------------------
  K point     63 =   0.062500  0.937500  0.812500  Weight =    0.004
--------------------------------------------------------------------------------

  Frequencies (cm-1) [NB: Negative implies an imaginary mode]:

  246.41  262.52  355.08  957.15  965.65 1037.22 1037.22 1071.56 1071.56
 1117.60 1154.74 1154.74 1228.55 1228.55 1301.78 1301.78 1305.59 1312.59
 1351.76 1351.76 1400.99 1534.95 1535.50 1547.85


--------------------------------------------------------------------------------
  K point     64 =   0.062500  0.937500  0.937500  Weight =    0.004
--------------------------------------------------------------------------------

  Frequencies (cm-1) [NB: Negative implies an imaginary mode]:

  125.64  125.64  197.95 1044.77 1044.77 1044.77 1057.00 1057.00 1057.00
 1200.20 1200.20 1200.20 1243.62 1243.62 1243.62 1269.29 1269.29 1269.29
 1334.82 1334.82 1334.82 1547.08 1547.08 1551.42


--------------------------------------------------------------------------------
  K point     65 =   0.187500  0.062500  0.062500  Weight =    0.004
--------------------------------------------------------------------------------

  Frequencies (cm-1) [NB: Negative implies an imaginary mode]:

  246.41  262.52  355.08  957.15  965.65 1037.22 1037.22 1071.56 1071.56
 1117.60 1154.74 1154.74 1228.55 1228.55 1301.78 1301.78 1305.59 1312.59
 1351.76 1351.76 1400.99 1534.95 1535.50 1547.85


--------------------------------------------------------------------------------
  K point     66 =   0.187500  0.062500  0.187500  Weight =    0.004
--------------------------------------------------------------------------------

  Frequencies (cm-1) [NB: Negative implies an imaginary mode]:

  294.57  345.84  474.31  954.95  954.95  980.40  980.40 1002.54 1092.94
 1095.00 1095.00 1127.49 1260.65 1271.42 1298.99 1298.99 1336.22 1336.22
 1380.01 1396.63 1396.63 1521.02 1524.90 1545.42


--------------------------------------------------------------------------------
  K point     67 =   0.187500  0.062500  0.312500  Weight =    0.004
--------------------------------------------------------------------------------

  Frequencies (cm-1) [NB: Negative implies an imaginary mode]:

  411.12  471.38  614.78  836.28  865.60  955.80  975.21 1000.24 1000.24
 1074.77 1077.42 1114.89 1246.84 1285.19 1304.06 1364.04 1365.28 1387.62
 1388.62 1398.86 1443.92 1497.62 1504.33 1534.77


--------------------------------------------------------------------------------
  K point     68 =   0.187500  0.062500  0.437500  Weight =    0.004
--------------------------------------------------------------------------------

  Frequencies (cm-1) [NB: Negative implies an imaginary mode]:

  553.75  606.51  699.23  739.76  754.37  884.60  956.09  960.06 1023.02
 1048.81 1075.98 1095.93 1251.16 1267.60 1337.76 1362.76 1394.96 1403.76
 1420.72 1435.09 1464.63 1474.18 1483.95 1514.41


--------------------------------------------------------------------------------
  K point     69 =   0.187500  0.062500  0.562500  Weight =    0.004
--------------------------------------------------------------------------------

  Frequencies (cm-1) [NB: Negative implies an imaginary mode]:

  553.75  606.51  699.23  739.76  754.37  884.60  956.09  960.06 1023.02
 1048.81 1075.98 1095.93 1251.16 1267.60 1337.76 1362.76 1394.96 1403.76
 1420.72 1435.09 1464.63 1474.18 1483.95 1514.41


--------------------------------------------------------------------------------
  K point     70 =   0.187500  0.062500  0.687500  Weight =    0.004
--------------------------------------------------------------------------------

  Frequencies (cm-1) [NB: Negative implies an imaginary mode]:

  411.12  471.38  614.78  836.28  865.60  955.80  975.21 1000.24 1000.24
 1074.77 1077.42 1114.89 1246.84 1285.19 1304.06 1364.04 1365.28 1387.62
 1388.62 1398.86 1443.92 1497.62 1504.33 1534.77


--------------------------------------------------------------------------------
  K point     71 =   0.187500  0.062500  0.812500  Weight =    0.004
--------------------------------------------------------------------------------

  Frequencies (cm-1) [NB: Negative implies an imaginary mode]:

  294.57  345.84  474.31  954.95  954.95  980.40  980.40 1002.54 1092.94
 1095.00 1095.00 1127.49 1260.65 1271.42 1298.99 1298.99 1336.22 1336.22
 1380.01 1396.63 1396.63 1521.02 1524.90 1545.42


--------------------------------------------------------------------------------
  K point     72 =   0.187500  0.062500  0.937500  Weight =    0.004
--------------------------------------------------------------------------------

  Frequencies (cm-1) [NB: Negative implies an imaginary mode]:

  246.41  262.52  355.08  957.15  965.65 1037.22 1037.22 1071.56 1071.56
 1117.60 1154.74 1154.74 1228.55 1228.55 1301.78 1301.78 1305.59 1312.59
 1351.76 1351.76 1400.99 1534.95 1535.50 1547.85


--------------------------------------------------------------------------------
  K point     73 =   0.187500  0.187500  0.062500  Weight =    0.004
--------------------------------------------------------------------------------

  Frequencies (cm-1) [NB: Negative implies an imaginary mode]:

  294.57  345.84  474.31  954.95  954.95  980.40  980.40 1002.54 1092.94
 1095.00 1095.00 1127.49 1260.65 1271.42 1298.99 1298.99 1336.22 1336.22
 1380.01 1396.63 1396.63 1521.02 1524.90 1545.42


--------------------------------------------------------------------------------
  K point     74 =   0.187500  0.187500  0.187500  Weight =    0.004
--------------------------------------------------------------------------------

  Frequencies (cm-1) [NB: Negative implies an imaginary mode]:

  366.52  366.52  573.88  934.68  934.68  934.68  990.04  990.04  990.04
 1090.64 1090.64 1090.64 1306.11 1306.11 1306.11 1335.76 1335.76 1335.76
 1400.75 1400.75 1400.75 1510.20 1510.20 1544.18


--------------------------------------------------------------------------------
  K point     75 =   0.187500  0.187500  0.312500  Weight =    0.004
--------------------------------------------------------------------------------

  Frequencies (cm-1) [NB: Negative implies an imaginary mode]:

  453.77  475.92  696.58  834.79  861.39  919.61  919.61  983.73  983.73
 1020.78 1094.00 1094.00 1301.63 1301.63 1349.02 1349.02 1362.12 1392.22
 1404.01 1404.01 1436.37 1488.35 1488.57 1534.00


--------------------------------------------------------------------------------
  K point     76 =   0.187500  0.187500  0.437500  Weight =    0.004
--------------------------------------------------------------------------------

  Frequencies (cm-1) [NB: Negative implies an imaginary mode]:

  580.95  597.81  719.91  721.76  817.99  912.62  912.62  928.05  973.25
  973.25 1100.47 1100.47 1294.82 1294.82 1362.20 1362.20 1404.38 1404.38
 1413.63 1431.21 1456.24 1461.94 1477.92 1512.03


--------------------------------------------------------------------------------
  K point     77 =   0.187500  0.187500  0.562500  Weight =    0.004
--------------------------------------------------------------------------------

  Frequencies (cm-1) [NB: Negative implies an imaginary mode]:

  580.95  597.81  719.91  721.76  817.99  912.62  912.62  928.05  973.25
  973.25 1100.47 1100.47 1294.82 1294.82 1362.20 1362.20 1404.38 1404.38
 1413.63 1431.21 1456.24 1461.94 1477.92 1512.03


--------------------------------------------------------------------------------
  K point     78 =   0.187500  0.187500  0.687500  Weight =    0.004
--------------------------------------------------------------------------------

  Frequencies (cm-1) [NB: Negative implies an imaginary mode]:

  453.77  475.92  696.58  834.79  861.39  919.61  919.61  983.73  983.73
 1020.78 1094.00 1094.00 1301.63 1301.63 1349.02 1349.02 1362.12 1392.22
 1404.01 1404.01 1436.37 1488.35 1488.57 1534.00


--------------------------------------------------------------------------------
  K point     79 =   0.187500  0.187500  0.812500  Weight =    0.004
--------------------------------------------------------------------------------

  Frequencies (cm-1) [NB: Negative implies an imaginary mode]:

  366.52  366.52  573.88  934.68  934.68  934.68  990.04  990.04  990.04
 1090.64 1090.64 1090.64 1306.11 1306.11 1306.11 1335.76 1335.76 1335.76
 1400.75 1400.75 1400.75 1510.20 1510.20 1544.18


--------------------------------------------------------------------------------
  K point     80 =   0.187500  0.187500  0.937500  Weight =    0.004
--------------------------------------------------------------------------------

  Frequencies (cm-1) [NB: Negative implies an imaginary mode]:

  294.57  345.84  474.31  954.95  954.95  980.40  980.40 1002.54 1092.94
 1095.00 1095.00 1127.49 1260.65 1271.42 1298.99 1298.99 1336.22 1336.22
 1380.01 1396.63 1396.63 1521.02 1524.90 1545.42


--------------------------------------------------------------------------------
  K point     81 =   0.187500  0.312500  0.062500  Weight =    0.004
--------------------------------------------------------------------------------

  Frequencies (cm-1) [NB: Negative implies an imaginary mode]:

  411.12  471.38  614.78  836.28  865.60  955.80  975.21 1000.24 1000.24
 1074.77 1077.42 1114.89 1246.84 1285.19 1304.06 1364.04 1365.28 1387.62
 1388.62 1398.86 1443.92 1497.62 1504.33 1534.77


--------------------------------------------------------------------------------
  K point     82 =   0.187500  0.312500  0.187500  Weight =    0.004
--------------------------------------------------------------------------------

  Frequencies (cm-1) [NB: Negative implies an imaginary mode]:

  453.77  475.92  696.58  834.79  861.39  919.61  919.61  983.73  983.73
 1020.78 1094.00 1094.00 1301.63 1301.63 1349.02 1349.02 1362.12 1392.22
 1404.01 1404.01 1436.37 1488.35 1488.57 1534.00


--------------------------------------------------------------------------------
  K point     83 =   0.187500  0.312500  0.312500  Weight =    0.004
--------------------------------------------------------------------------------

  Frequencies (cm-1) [NB: Negative implies an imaginary mode]:

  508.91  551.40  798.64  827.99  827.99  871.36  871.36  878.22  954.81
 1050.02 1050.02 1105.84 1320.48 1349.34 1353.54 1353.54 1401.45 1401.45
 1413.92 1421.41 1421.41 1464.94 1470.93 1524.14


--------------------------------------------------------------------------------
  K point     84 =   0.187500  0.312500  0.437500  Weight =    0.004
--------------------------------------------------------------------------------

  Frequencies (cm-1) [NB: Negative implies an imaginary mode]:

  600.92  652.29  714.89  760.21  829.08  845.94  893.29  897.82  922.54
  983.62 1078.76 1099.80 1330.11 1341.51 1372.74 1398.78 1399.32 1411.12
 1416.07 1425.77 1435.79 1448.12 1464.90 1501.45


--------------------------------------------------------------------------------
  K point     85 =   0.187500  0.312500  0.562500  Weight =    0.004
--------------------------------------------------------------------------------

  Frequencies (cm-1) [NB: Negative implies an imaginary mode]:

  600.92  652.29  714.89  760.21  829.08  845.94  893.29  897.82  922.54
  983.62 1078.76 1099.80 1330.11 1341.51 1372.74 1398.78 1399.32 1411.12
 1416.07 1425.77 1435.79 1448.12 1464.90 1501.45


--------------------------------------------------------------------------------
  K point     86 =   0.187500  0.312500  0.687500  Weight =    0.004
--------------------------------------------------------------------------------

  Frequencies (cm-1) [NB: Negative implies an imaginary mode]:

  508.91  551.40  798.64  827.99  827.99  871.36  871.36  878.22  954.81
 1050.02 1050.02 1105.84 1320.48 1349.34 1353.54 1353.54 1401.45 1401.45
 1413.92 1421.41 1421.41 1464.94 1470.93 1524.14


--------------------------------------------------------------------------------
  K point     87 =   0.187500  0.312500  0.812500  Weight =    0.004
--------------------------------------------------------------------------------

  Frequencies (cm-1) [NB: Negative implies an imaginary mode]:

  453.77  475.92  696.58  834.79  861.39  919.61  919.61  983.73  983.73
 1020.78 1094.00 1094.00 1301.63 1301.63 1349.02 1349.02 1362.12 1392.22
 1404.01 1404.01 1436.37 1488.35 1488.57 1534.00


--------------------------------------------------------------------------------
  K point     88 =   0.187500  0.312500  0.937500  Weight =    0.004
--------------------------------------------------------------------------------

  Frequencies (cm-1) [NB: Negative implies an imaginary mode]:

  411.12  471.38  614.78  836.28  865.60  955.80  975.21 1000.24 1000.24
 1074.77 1077.42 1114.89 1246.84 1285.19 1304.06 1364.04 1365.28 1387.62
 1388.62 1398.86 1443.92 1497.62 1504.33 1534.77


--------------------------------------------------------------------------------
  K point     89 =   0.187500  0.437500  0.062500  Weight =    0.004
--------------------------------------------------------------------------------

  Frequencies (cm-1) [NB: Negative implies an imaginary mode]:

  553.75  606.51  699.23  739.76  754.37  884.60  956.09  960.06 1023.02
 1048.81 1075.98 1095.93 1251.16 1267.60 1337.76 1362.76 1394.96 1403.76
 1420.72 1435.09 1464.63 1474.18 1483.95 1514.41


--------------------------------------------------------------------------------
  K point     90 =   0.187500  0.437500  0.187500  Weight =    0.004
--------------------------------------------------------------------------------

  Frequencies (cm-1) [NB: Negative implies an imaginary mode]:

  580.95  597.81  719.91  721.76  817.99  912.62  912.62  928.05  973.25
  973.25 1100.47 1100.47 1294.82 1294.82 1362.20 1362.20 1404.38 1404.38
 1413.63 1431.21 1456.24 1461.94 1477.92 1512.03


--------------------------------------------------------------------------------
  K point     91 =   0.187500  0.437500  0.312500  Weight =    0.004
--------------------------------------------------------------------------------

  Frequencies (cm-1) [NB: Negative implies an imaginary mode]:

  600.92  652.29  714.89  760.21  829.08  845.94  893.29  897.82  922.54
  983.62 1078.76 1099.80 1330.11 1341.51 1372.74 1398.78 1399.32 1411.12
 1416.07 1425.77 1435.79 1448.12 1464.90 1501.45


--------------------------------------------------------------------------------
  K point     92 =   0.187500  0.437500  0.437500  Weight =    0.004
--------------------------------------------------------------------------------

  Frequencies (cm-1) [NB: Negative implies an imaginary mode]:

  653.75  728.64  735.34  735.34  781.85  811.32  811.32  867.45  973.60
 1035.69 1035.69 1076.41 1357.06 1379.04 1379.04 1396.80 1409.58 1416.49
 1416.49 1428.68 1432.16 1446.01 1446.01 1479.44


--------------------------------------------------------------------------------
  K point     93 =   0.187500  0.437500  0.562500  Weight =    0.004
--------------------------------------------------------------------------------

  Frequencies (cm-1) [NB: Negative implies an imaginary mode]:

  653.75  728.64  735.34  735.34  781.85  811.32  811.32  867.45  973.60
 1035.69 1035.69 1076.41 1357.06 1379.04 1379.04 1396.80 1409.58 1416.49
 1416.49 1428.68 1432.16 1446.01 1446.01 1479.44


--------------------------------------------------------------------------------
  K point     94 =   0.187500  0.437500  0.687500  Weight =    0.004
--------------------------------------------------------------------------------

  Frequencies (cm-1) [NB: Negative implies an imaginary mode]:

  600.92  652.29  714.89  760.21  829.08  845.94  893.29  897.82  922.54
  983.62 1078.76 1099.80 1330.11 1341.51 1372.74 1398.78 1399.32 1411.12
 1416.07 1425.77 1435.79 1448.12 1464.90 1501.45


--------------------------------------------------------------------------------
  K point     95 =   0.187500  0.437500  0.812500  Weight =    0.004
--------------------------------------------------------------------------------

  Frequencies (cm-1) [NB: Negative implies an imaginary mode]:

  580.95  597.81  719.91  721.76  817.99  912.62  912.62  928.05  973.25
  973.25 1100.47 1100.47 1294.82 1294.82 1362.20 1362.20 1404.38 1404.38
 1413.63 1431.21 1456.24 1461.94 1477.92 1512.03


--------------------------------------------------------------------------------
  K point     96 =   0.187500  0.437500  0.937500  Weight =    0.004
--------------------------------------------------------------------------------

  Frequencies (cm-1) [NB: Negative implies an imaginary mode]:

  553.75  606.51  699.23  739.76  754.37  884.60  956.09  960.06 1023.02
 1048.81 1075.98 1095.93 1251.16 1267.60 1337.76 1362.76 1394.96 1403.76
 1420.72 1435.09 1464.63 1474.18 1483.95 1514.41


--------------------------------------------------------------------------------
  K point     97 =   0.187500  0.562500  0.062500  Weight =    0.004
--------------------------------------------------------------------------------

  Frequencies (cm-1) [NB: Negative implies an imaginary mode]:

  553.75  606.51  699.23  739.76  754.37  884.60  956.09  960.06 1023.02
 1048.81 1075.98 1095.93 1251.16 1267.60 1337.76 1362.76 1394.96 1403.76
 1420.72 1435.09 1464.63 1474.18 1483.95 1514.41


--------------------------------------------------------------------------------
  K point     98 =   0.187500  0.562500  0.187500  Weight =    0.004
--------------------------------------------------------------------------------

  Frequencies (cm-1) [NB: Negative implies an imaginary mode]:

  580.95  597.81  719.91  721.76  817.99  912.62  912.62  928.05  973.25
  973.25 1100.47 1100.47 1294.82 1294.82 1362.20 1362.20 1404.38 1404.38
 1413.63 1431.21 1456.24 1461.94 1477.92 1512.03


--------------------------------------------------------------------------------
  K point     99 =   0.187500  0.562500  0.312500  Weight =    0.004
--------------------------------------------------------------------------------

  Frequencies (cm-1) [NB: Negative implies an imaginary mode]:

  600.92  652.29  714.89  760.21  829.08  845.94  893.29  897.82  922.54
  983.62 1078.76 1099.80 1330.11 1341.51 1372.74 1398.78 1399.32 1411.12
 1416.07 1425.77 1435.79 1448.12 1464.90 1501.45


--------------------------------------------------------------------------------
  K point    100 =   0.187500  0.562500  0.437500  Weight =    0.004
--------------------------------------------------------------------------------

  Frequencies (cm-1) [NB: Negative implies an imaginary mode]:

  653.75  728.64  735.34  735.34  781.85  811.32  811.32  867.45  973.60
 1035.69 1035.69 1076.41 1357.06 1379.04 1379.04 1396.80 1409.58 1416.49
 1416.49 1428.68 1432.16 1446.01 1446.01 1479.44


--------------------------------------------------------------------------------
  K point    101 =   0.187500  0.562500  0.562500  Weight =    0.004
--------------------------------------------------------------------------------

  Frequencies (cm-1) [NB: Negative implies an imaginary mode]:

  653.75  728.64  735.34  735.34  781.85  811.32  811.32  867.45  973.60
 1035.69 1035.69 1076.41 1357.06 1379.04 1379.04 1396.80 1409.58 1416.49
 1416.49 1428.68 1432.16 1446.01 1446.01 1479.44


--------------------------------------------------------------------------------
  K point    102 =   0.187500  0.562500  0.687500  Weight =    0.004
--------------------------------------------------------------------------------

  Frequencies (cm-1) [NB: Negative implies an imaginary mode]:

  600.92  652.29  714.89  760.21  829.08  845.94  893.29  897.82  922.54
  983.62 1078.76 1099.80 1330.11 1341.51 1372.74 1398.78 1399.32 1411.12
 1416.07 1425.77 1435.79 1448.12 1464.90 1501.45


--------------------------------------------------------------------------------
  K point    103 =   0.187500  0.562500  0.812500  Weight =    0.004
--------------------------------------------------------------------------------

  Frequencies (cm-1) [NB: Negative implies an imaginary mode]:

  580.95  597.81  719.91  721.76  817.99  912.62  912.62  928.05  973.25
  973.25 1100.47 1100.47 1294.82 1294.82 1362.20 1362.20 1404.38 1404.38
 1413.63 1431.21 1456.24 1461.94 1477.92 1512.03


--------------------------------------------------------------------------------
  K point    104 =   0.187500  0.562500  0.937500  Weight =    0.004
--------------------------------------------------------------------------------

  Frequencies (cm-1) [NB: Negative implies an imaginary mode]:

  553.75  606.51  699.23  739.76  754.37  884.60  956.09  960.06 1023.02
 1048.81 1075.98 1095.93 1251.16 1267.60 1337.76 1362.76 1394.96 1403.76
 1420.72 1435.09 1464.63 1474.18 1483.95 1514.41


--------------------------------------------------------------------------------
  K point    105 =   0.187500  0.687500  0.062500  Weight =    0.004
--------------------------------------------------------------------------------

  Frequencies (cm-1) [NB: Negative implies an imaginary mode]:

  411.12  471.38  614.78  836.28  865.60  955.80  975.21 1000.24 1000.24
 1074.77 1077.42 1114.89 1246.84 1285.19 1304.06 1364.04 1365.28 1387.62
 1388.62 1398.86 1443.92 1497.62 1504.33 1534.77


--------------------------------------------------------------------------------
[...]
--------------------------------------------------------------------------------
  Zero point energy            =        1.683311 eV
  Entropy                      =        0.000001 eV/K
                               =        0.131323 J/(mol.K)
  Helmholtz free-energy        =      -57.267064 eV
                               =    -5525.395757 kJmol-1
  Free energy (equipartition)  =      -58.501859 eV
  - T*S       (equipartition)  =        0.303724 eV
  Uvib        (equipartition)  =        0.144771 eV
  Mean kinetic energy          =        0.841693 eV
  Heat capacity - const volume =        0.000004 eV/K
                               =        0.427954 J/(mol.K)
--------------------------------------------------------------------------------
  Phonon properties (per mole of unit cells): Temperature =     80.000 K
--------------------------------------------------------------------------------
  Zero point energy            =        1.683311 eV
  Entropy                      =        0.000002 eV/K
                               =        0.202174 J/(mol.K)
  Helmholtz free-energy        =      -57.267081 eV
                               =    -5525.397408 kJmol-1
  Free energy (equipartition)  =      -58.459881 eV
  - T*S       (equipartition)  =        0.325020 eV
  Uvib        (equipartition)  =        0.165453 eV
  Mean kinetic energy          =        0.841720 eV
  Heat capacity - const volume =        0.000007 eV/K
                               =        0.649012 J/(mol.K)
--------------------------------------------------------------------------------
  Phonon properties (per mole of unit cells): Temperature =     90.000 K
--------------------------------------------------------------------------------
  Zero point energy            =        1.683311 eV
  Entropy                      =        0.000003 eV/K
                               =        0.294762 J/(mol.K)
  Helmholtz free-energy        =      -57.267106 eV
                               =    -5525.399873 kJmol-1
  Free energy (equipartition)  =      -58.420496 eV
  - T*S       (equipartition)  =        0.343724 eV
  Uvib        (equipartition)  =        0.186134 eV
  Mean kinetic energy          =        0.841761 eV
  Heat capacity - const volume =        0.000010 eV/K
                               =        0.942074 J/(mol.K)
--------------------------------------------------------------------------------
  Phonon properties (per mole of unit cells): Temperature =    100.000 K
--------------------------------------------------------------------------------
  Zero point energy            =        1.683311 eV
  Entropy                      =        0.000004 eV/K
                               =        0.412835 J/(mol.K)
  Helmholtz free-energy        =      -57.267143 eV
                               =    -5525.403388 kJmol-1
  Free energy (equipartition)  =      -58.383413 eV
  - T*S       (equipartition)  =        0.360125 eV
  Uvib        (equipartition)  =        0.206816 eV
  Mean kinetic energy          =        0.841820 eV
  Heat capacity - const volume =        0.000014 eV/K
                               =        1.321535 J/(mol.K)
--------------------------------------------------------------------------------
  Phonon properties (per mole of unit cells): Temperature =    110.000 K
--------------------------------------------------------------------------------
  Zero point energy            =        1.683311 eV
  Entropy                      =        0.000006 eV/K
                               =        0.560476 J/(mol.K)
  Helmholtz free-energy        =      -57.267193 eV
                               =    -5525.408228 kJmol-1
  Free energy (equipartition)  =      -58.348401 eV
  - T*S       (equipartition)  =        0.374455 eV
  Uvib        (equipartition)  =        0.227498 eV
  Mean kinetic energy          =        0.841900 eV
  Heat capacity - const volume =        0.000019 eV/K
                               =        1.802334 J/(mol.K)
--------------------------------------------------------------------------------
  Phonon properties (per mole of unit cells): Temperature =    120.000 K
--------------------------------------------------------------------------------
  Zero point energy            =        1.683311 eV
  Entropy                      =        0.000008 eV/K
                               =        0.741988 J/(mol.K)
  Helmholtz free-energy        =      -57.267260 eV
                               =    -5525.414711 kJmol-1
  Free energy (equipartition)  =      -58.315273 eV
  - T*S       (equipartition)  =        0.386902 eV
  Uvib        (equipartition)  =        0.248179 eV
  Mean kinetic energy          =        0.842008 eV
  Heat capacity - const volume =        0.000025 eV/K
                               =        2.398862 J/(mol.K)
--------------------------------------------------------------------------------
  Phonon properties (per mole of unit cells): Temperature =    130.000 K
--------------------------------------------------------------------------------
  Zero point energy            =        1.683311 eV
  Entropy                      =        0.000010 eV/K
                               =        0.961735 J/(mol.K)
  Helmholtz free-energy        =      -57.267348 eV
                               =    -5525.423196 kJmol-1
  Free energy (equipartition)  =      -58.283870 eV
  - T*S       (equipartition)  =        0.397623 eV
  Uvib        (equipartition)  =        0.268861 eV
  Mean kinetic energy          =        0.842151 eV
  Heat capacity - const volume =        0.000032 eV/K
                               =        3.123922 J/(mol.K)
--------------------------------------------------------------------------------
  Phonon properties (per mole of unit cells): Temperature =    140.000 K
--------------------------------------------------------------------------------
  Zero point energy            =        1.683311 eV
  Entropy                      =        0.000013 eV/K
                               =        1.223979 J/(mol.K)
  Helmholtz free-energy        =      -57.267461 eV
                               =    -5525.434087 kJmol-1
  Free energy (equipartition)  =      -58.254059 eV
  - T*S       (equipartition)  =        0.406752 eV
  Uvib        (equipartition)  =        0.289542 eV
  Mean kinetic energy          =        0.842334 eV
  Heat capacity - const volume =        0.000041 eV/K
                               =        3.987998 J/(mol.K)
--------------------------------------------------------------------------------
  Phonon properties (per mole of unit cells): Temperature =    150.000 K
--------------------------------------------------------------------------------
  Zero point energy            =        1.683311 eV
  Entropy                      =        0.000016 eV/K
                               =        1.532731 J/(mol.K)
  Helmholtz free-energy        =      -57.267603 eV
                               =    -5525.447830 kJmol-1
  Free energy (equipartition)  =      -58.225727 eV
  - T*S       (equipartition)  =        0.414403 eV
  Uvib        (equipartition)  =        0.310224 eV
  Mean kinetic energy          =        0.842567 eV
  Heat capacity - const volume =        0.000052 eV/K
                               =        4.998864 J/(mol.K)
--------------------------------------------------------------------------------
  Phonon properties (per mole of unit cells): Temperature =    160.000 K
--------------------------------------------------------------------------------
  Zero point energy            =        1.683311 eV
  Entropy                      =        0.000020 eV/K
                               =        1.891640 J/(mol.K)
  Helmholtz free-energy        =      -57.267780 eV
                               =    -5525.464909 kJmol-1
  Free energy (equipartition)  =      -58.198775 eV
  - T*S       (equipartition)  =        0.420674 eV
  Uvib        (equipartition)  =        0.330906 eV
  Mean kinetic energy          =        0.842855 eV
  Heat capacity - const volume =        0.000064 eV/K
                               =        6.161502 J/(mol.K)
--------------------------------------------------------------------------------
  Phonon properties (per mole of unit cells): Temperature =    170.000 K
--------------------------------------------------------------------------------
  Zero point energy            =        1.683311 eV
  Entropy                      =        0.000024 eV/K
                               =        2.303908 J/(mol.K)
  Helmholtz free-energy        =      -57.267997 eV
                               =    -5525.485841 kJmol-1
  Free energy (equipartition)  =      -58.173116 eV
  - T*S       (equipartition)  =        0.425651 eV
  Uvib        (equipartition)  =        0.351587 eV
  Mean kinetic energy          =        0.843208 eV
  Heat capacity - const volume =        0.000078 eV/K
                               =        7.478214 J/(mol.K)
--------------------------------------------------------------------------------
  Phonon properties (per mole of unit cells): Temperature =    180.000 K
--------------------------------------------------------------------------------
  Zero point energy            =        1.683311 eV
  Entropy                      =        0.000029 eV/K
                               =        2.772250 J/(mol.K)
  Helmholtz free-energy        =      -57.268260 eV
                               =    -5525.511174 kJmol-1
  Free energy (equipartition)  =      -58.148674 eV
  - T*S       (equipartition)  =        0.429411 eV
  Uvib        (equipartition)  =        0.372269 eV
  Mean kinetic energy          =        0.843633 eV
  Heat capacity - const volume =        0.000093 eV/K
                               =        8.948842 J/(mol.K)
--------------------------------------------------------------------------------
  Phonon properties (per mole of unit cells): Temperature =    190.000 K
--------------------------------------------------------------------------------
  Zero point energy            =        1.683311 eV
  Entropy                      =        0.000034 eV/K
                               =        3.298873 J/(mol.K)
  Helmholtz free-energy        =      -57.268574 eV
                               =    -5525.541480 kJmol-1
  Free energy (equipartition)  =      -58.125382 eV
  - T*S       (equipartition)  =        0.432021 eV
  Uvib        (equipartition)  =        0.392951 eV
  Mean kinetic energy          =        0.844138 eV
  Heat capacity - const volume =        0.000110 eV/K
                               =       10.571040 J/(mol.K)
--------------------------------------------------------------------------------
  Phonon properties (per mole of unit cells): Temperature =    200.000 K
--------------------------------------------------------------------------------
  Zero point energy            =        1.683311 eV
  Entropy                      =        0.000040 eV/K
                               =        3.885473 J/(mol.K)
  Helmholtz free-energy        =      -57.268946 eV
                               =    -5525.577351 kJmol-1
  Free energy (equipartition)  =      -58.103179 eV
  - T*S       (equipartition)  =        0.433543 eV
  Uvib        (equipartition)  =        0.413632 eV
  Mean kinetic energy          =        0.844731 eV
  Heat capacity - const volume =        0.000128 eV/K
                               =       12.340553 J/(mol.K)
--------------------------------------------------------------------------------
  Phonon properties (per mole of unit cells): Temperature =    210.000 K
--------------------------------------------------------------------------------
  Zero point energy            =        1.683311 eV
  Entropy                      =        0.000047 eV/K
                               =        4.533248 J/(mol.K)
  Helmholtz free-energy        =      -57.269382 eV
                               =    -5525.619394 kJmol-1
  Free energy (equipartition)  =      -58.082011 eV
  - T*S       (equipartition)  =        0.434029 eV
  Uvib        (equipartition)  =        0.434314 eV
  Mean kinetic energy          =        0.845420 eV
  Heat capacity - const volume =        0.000148 eV/K
                               =       14.251489 J/(mol.K)
--------------------------------------------------------------------------------
  Phonon properties (per mole of unit cells): Temperature =    220.000 K
--------------------------------------------------------------------------------
  Zero point energy            =        1.683311 eV
  Entropy                      =        0.000054 eV/K
                               =        5.242923 J/(mol.K)
  Helmholtz free-energy        =      -57.269888 eV
                               =    -5525.668223 kJmol-1
  Free energy (equipartition)  =      -58.061827 eV
  - T*S       (equipartition)  =        0.433531 eV
  Uvib        (equipartition)  =        0.454995 eV
  Mean kinetic energy          =        0.846210 eV
  Heat capacity - const volume =        0.000169 eV/K
                               =       16.296578 J/(mol.K)
--------------------------------------------------------------------------------
  Phonon properties (per mole of unit cells): Temperature =    230.000 K
--------------------------------------------------------------------------------
  Zero point energy            =        1.683311 eV
  Entropy                      =        0.000062 eV/K
                               =        6.014777 J/(mol.K)
  Helmholtz free-energy        =      -57.270470 eV
                               =    -5525.724459 kJmol-1
  Free energy (equipartition)  =      -58.042585 eV
  - T*S       (equipartition)  =        0.432092 eV
  Uvib        (equipartition)  =        0.475677 eV
  Mean kinetic energy          =        0.847111 eV
  Heat capacity - const volume =        0.000191 eV/K
                               =       18.467420 J/(mol.K)
--------------------------------------------------------------------------------
  Phonon properties (per mole of unit cells): Temperature =    240.000 K
--------------------------------------------------------------------------------
  Zero point energy            =        1.683311 eV
  Entropy                      =        0.000071 eV/K
                               =        6.848675 J/(mol.K)
  Helmholtz free-energy        =      -57.271137 eV
                               =    -5525.788725 kJmol-1
  Free energy (equipartition)  =      -58.024241 eV
  - T*S       (equipartition)  =        0.429754 eV
  Uvib        (equipartition)  =        0.496359 eV
  Mean kinetic energy          =        0.848127 eV
  Heat capacity - const volume =        0.000215 eV/K
                               =       20.754719 J/(mol.K)
--------------------------------------------------------------------------------
  Phonon properties (per mole of unit cells): Temperature =    250.000 K
--------------------------------------------------------------------------------
  Zero point energy            =        1.683311 eV
  Entropy                      =        0.000080 eV/K
                               =        7.744107 J/(mol.K)
  Helmholtz free-energy        =      -57.271892 eV
                               =    -5525.861638 kJmol-1
  Free energy (equipartition)  =      -58.006760 eV
  - T*S       (equipartition)  =        0.426554 eV
  Uvib        (equipartition)  =        0.517040 eV
  Mean kinetic energy          =        0.849264 eV
  Heat capacity - const volume =        0.000240 eV/K
                               =       23.148509 J/(mol.K)
--------------------------------------------------------------------------------
  Phonon properties (per mole of unit cells): Temperature =    260.000 K
--------------------------------------------------------------------------------
  Zero point energy            =        1.683311 eV
  Entropy                      =        0.000090 eV/K
                               =        8.700219 J/(mol.K)
  Helmholtz free-energy        =      -57.272744 eV
                               =    -5525.943810 kJmol-1
  Free energy (equipartition)  =      -57.990106 eV
  - T*S       (equipartition)  =        0.422526 eV
  Uvib        (equipartition)  =        0.537722 eV
  Mean kinetic energy          =        0.850527 eV
  Heat capacity - const volume =        0.000266 eV/K
                               =       25.638359 J/(mol.K)
--------------------------------------------------------------------------------
  Phonon properties (per mole of unit cells): Temperature =    270.000 K
--------------------------------------------------------------------------------
  Zero point energy            =        1.683311 eV
  Entropy                      =        0.000101 eV/K
                               =        9.715856 J/(mol.K)
  Helmholtz free-energy        =      -57.273698 eV
                               =    -5526.035841 kJmol-1
  Free energy (equipartition)  =      -57.974248 eV
  - T*S       (equipartition)  =        0.417703 eV
  Uvib        (equipartition)  =        0.558403 eV
  Mean kinetic energy          =        0.851922 eV
  Heat capacity - const volume =        0.000292 eV/K
                               =       28.213572 J/(mol.K)
--------------------------------------------------------------------------------
  Phonon properties (per mole of unit cells): Temperature =    280.000 K
--------------------------------------------------------------------------------
  Zero point energy            =        1.683311 eV
  Entropy                      =        0.000112 eV/K
                               =       10.789599 J/(mol.K)
  Helmholtz free-energy        =      -57.274760 eV
                               =    -5526.138320 kJmol-1
  Free energy (equipartition)  =      -57.959155 eV
  - T*S       (equipartition)  =        0.412114 eV
  Uvib        (equipartition)  =        0.579085 eV
  Mean kinetic energy          =        0.853453 eV
  Heat capacity - const volume =        0.000320 eV/K
                               =       30.863358 J/(mol.K)
--------------------------------------------------------------------------------
  Phonon properties (per mole of unit cells): Temperature =    290.000 K
--------------------------------------------------------------------------------
  Zero point energy            =        1.683311 eV
  Entropy                      =        0.000124 eV/K
                               =       11.919798 J/(mol.K)
  Helmholtz free-energy        =      -57.275936 eV
                               =    -5526.251821 kJmol-1
  Free energy (equipartition)  =      -57.944802 eV
  - T*S       (equipartition)  =        0.405785 eV
  Uvib        (equipartition)  =        0.599767 eV
  Mean kinetic energy          =        0.855122 eV
  Heat capacity - const volume =        0.000348 eV/K
                               =       33.576997 J/(mol.K)
--------------------------------------------------------------------------------

  Time to end of properties =       1.2786 seconds


  Peak dynamic memory used =       0.67 MB 


  Timing analysis for GULP :

--------------------------------------------------------------------------------
  Task / Subroutine                                          Time (Seconds)
--------------------------------------------------------------------------------
  Calculation of real space energy and derivatives                0.0006
  Calculation of Brenner energy and derivatives                   1.2414
  Calculation of phonons                                          1.2687
  Disk read/write operations to scratch files                     0.0053
--------------------------------------------------------------------------------
  Total CPU time                                                  1.2787
--------------------------------------------------------------------------------


  Job Finished at 18:11.00 14th August     2020                               

