********************************************************************************
*                       GENERAL UTILITY LATTICE PROGRAM                        *
*                                 Julian Gale                                  *
*                       Curtin Institute for Computation                       *
*                           Department of Chemistry                            *
*                    Curtin University, Western Australia                      *
********************************************************************************
* Version = 5.1.0 * Last modified = 25th January 2020                          *
********************************************************************************
*  single       - perform a single point run                                   *
*  property     - calculate properties for final geometry                      *
*  phonon       - calculate phonons for final geometry                         *
********************************************************************************
* ASE calculation                                                              *
********************************************************************************


  Job Started  at 18:10.57 14th August     2020                               

  Number of CPUs =     1


  Total number of configurations input =      1

********************************************************************************
*  Input for Configuration =   1                                               *
********************************************************************************

  Formula = C8                                                          

  Number of irreducible atoms/shells =       8


  Total number atoms/shells =       8

  Dimensionality = 3               :  Bulk   



  Cartesian lattice vectors (Angstroms) :

        3.570000    0.000000    0.000000
        0.000000    3.570000    0.000000
        0.000000    0.000000    3.570000

  Cell parameters (Angstroms/Degrees):

  a =       3.5700    alpha =  90.0000
  b =       3.5700    beta  =  90.0000
  c =       3.5700    gamma =  90.0000

  Initial cell volume =          45.499293 Angs**3

  Shrinking factors =      8     8     8

  Temperature of configuration =  10.00     K 

  Pressure of configuration =         0.000 GPa 

  Fractional coordinates of asymmetric unit :

--------------------------------------------------------------------------------
   No.  Atomic       x           y          z         Charge      Occupancy
        Label      (Frac)      (Frac)     (Frac)        (e)         (Frac)  
--------------------------------------------------------------------------------
      1 C     c    0.000000    0.000000    0.000000     0.00000    1.000000    
      2 C     c    0.000000    0.500000    0.500000     0.00000    1.000000    
      3 C     c    0.500000    0.500000    0.000000     0.00000    1.000000    
      4 C     c    0.500000    0.000000    0.500000     0.00000    1.000000    
      5 C     c    0.750000    0.250000    0.750000     0.00000    1.000000    
      6 C     c    0.250000    0.250000    0.250000     0.00000    1.000000    
      7 C     c    0.250000    0.750000    0.750000     0.00000    1.000000    
      8 C     c    0.750000    0.750000    0.250000     0.00000    1.000000    
--------------------------------------------------------------------------------


  Brillouin zone sampling points :

--------------------------------------------------------------------------------
  Point number          x          y          z            Weight
--------------------------------------------------------------------------------
        1           0.062500   0.062500   0.062500     0.00390625
        2           0.062500   0.062500   0.187500     0.00390625
        3           0.062500   0.062500   0.312500     0.00390625
        4           0.062500   0.062500   0.437500     0.00390625
        5           0.062500   0.062500   0.562500     0.00390625
        6           0.062500   0.062500   0.687500     0.00390625
        7           0.062500   0.062500   0.812500     0.00390625
        8           0.062500   0.062500   0.937500     0.00390625
        9           0.062500   0.187500   0.062500     0.00390625
       10           0.062500   0.187500   0.187500     0.00390625
       11           0.062500   0.187500   0.312500     0.00390625
       12           0.062500   0.187500   0.437500     0.00390625
       13           0.062500   0.187500   0.562500     0.00390625
       14           0.062500   0.187500   0.687500     0.00390625
       15           0.062500   0.187500   0.812500     0.00390625
       16           0.062500   0.187500   0.937500     0.00390625
       17           0.062500   0.312500   0.062500     0.00390625
       18           0.062500   0.312500   0.187500     0.00390625
       19           0.062500   0.312500   0.312500     0.00390625
       20           0.062500   0.312500   0.437500     0.00390625
       21           0.062500   0.312500   0.562500     0.00390625
       22           0.062500   0.312500   0.687500     0.00390625
       23           0.062500   0.312500   0.812500     0.00390625
       24           0.062500   0.312500   0.937500     0.00390625
       25           0.062500   0.437500   0.062500     0.00390625
       26           0.062500   0.437500   0.187500     0.00390625
       27           0.062500   0.437500   0.312500     0.00390625
       28           0.062500   0.437500   0.437500     0.00390625
       29           0.062500   0.437500   0.562500     0.00390625
       30           0.062500   0.437500   0.687500     0.00390625
       31           0.062500   0.437500   0.812500     0.00390625
       32           0.062500   0.437500   0.937500     0.00390625
       33           0.062500   0.562500   0.062500     0.00390625
       34           0.062500   0.562500   0.187500     0.00390625
       35           0.062500   0.562500   0.312500     0.00390625
       36           0.062500   0.562500   0.437500     0.00390625
       37           0.062500   0.562500   0.562500     0.00390625
       38           0.062500   0.562500   0.687500     0.00390625
       39           0.062500   0.562500   0.812500     0.00390625
       40           0.062500   0.562500   0.937500     0.00390625
       41           0.062500   0.687500   0.062500     0.00390625
       42           0.062500   0.687500   0.187500     0.00390625
       43           0.062500   0.687500   0.312500     0.00390625
       44           0.062500   0.687500   0.437500     0.00390625
       45           0.062500   0.687500   0.562500     0.00390625
       46           0.062500   0.687500   0.687500     0.00390625
       47           0.062500   0.687500   0.812500     0.00390625
       48           0.062500   0.687500   0.937500     0.00390625
       49           0.062500   0.812500   0.062500     0.00390625
       50           0.062500   0.812500   0.187500     0.00390625
       51           0.062500   0.812500   0.312500     0.00390625
       52           0.062500   0.812500   0.437500     0.00390625
       53           0.062500   0.812500   0.562500     0.00390625
       54           0.062500   0.812500   0.687500     0.00390625
       55           0.062500   0.812500   0.812500     0.00390625
       56           0.062500   0.812500   0.937500     0.00390625
       57           0.062500   0.937500   0.062500     0.00390625
       58           0.062500   0.937500   0.187500     0.00390625
       59           0.062500   0.937500   0.312500     0.00390625
       60           0.062500   0.937500   0.437500     0.00390625
       61           0.062500   0.937500   0.562500     0.00390625
       62           0.062500   0.937500   0.687500     0.00390625
       63           0.062500   0.937500   0.812500     0.00390625
       64           0.062500   0.937500   0.937500     0.00390625
       65           0.187500   0.062500   0.062500     0.00390625
       66           0.187500   0.062500   0.187500     0.00390625
       67           0.187500   0.062500   0.312500     0.00390625
       68           0.187500   0.062500   0.437500     0.00390625
       69           0.187500   0.062500   0.562500     0.00390625
       70           0.187500   0.062500   0.687500     0.00390625
       71           0.187500   0.062500   0.812500     0.00390625
       72           0.187500   0.062500   0.937500     0.00390625
       73           0.187500   0.187500   0.062500     0.00390625
       74           0.187500   0.187500   0.187500     0.00390625
       75           0.187500   0.187500   0.312500     0.00390625
       76           0.187500   0.187500   0.437500     0.00390625
       77           0.187500   0.187500   0.562500     0.00390625
       78           0.187500   0.187500   0.687500     0.00390625
       79           0.187500   0.187500   0.812500     0.00390625
       80           0.187500   0.187500   0.937500     0.00390625
       81           0.187500   0.312500   0.062500     0.00390625
       82           0.187500   0.312500   0.187500     0.00390625
       83           0.187500   0.312500   0.312500     0.00390625
       84           0.187500   0.312500   0.437500     0.00390625
       85           0.187500   0.312500   0.562500     0.00390625
       86           0.187500   0.312500   0.687500     0.00390625
       87           0.187500   0.312500   0.812500     0.00390625
       88           0.187500   0.312500   0.937500     0.00390625
       89           0.187500   0.437500   0.062500     0.00390625
       90           0.187500   0.437500   0.187500     0.00390625
       91           0.187500   0.437500   0.312500     0.00390625
       92           0.187500   0.437500   0.437500     0.00390625
       93           0.187500   0.437500   0.562500     0.00390625
       94           0.187500   0.437500   0.687500     0.00390625
       95           0.187500   0.437500   0.812500     0.00390625
       96           0.187500   0.437500   0.937500     0.00390625
       97           0.187500   0.562500   0.062500     0.00390625
       98           0.187500   0.562500   0.187500     0.00390625
       99           0.187500   0.562500   0.312500     0.00390625
      100           0.187500   0.562500   0.437500     0.00390625
      101           0.187500   0.562500   0.562500     0.00390625
      102           0.187500   0.562500   0.687500     0.00390625
      103           0.187500   0.562500   0.812500     0.00390625
      104           0.187500   0.562500   0.937500     0.00390625
      105           0.187500   0.687500   0.062500     0.00390625
      106           0.187500   0.687500   0.187500     0.00390625
      107           0.187500   0.687500   0.312500     0.00390625
      108           0.187500   0.687500   0.437500     0.00390625
      109           0.187500   0.687500   0.562500     0.00390625
      110           0.187500   0.687500   0.687500     0.00390625
      111           0.187500   0.687500   0.812500     0.00390625
      112           0.187500   0.687500   0.937500     0.00390625
      113           0.187500   0.812500   0.062500     0.00390625
      114           0.187500   0.812500   0.187500     0.00390625
      115           0.187500   0.812500   0.312500     0.00390625
      116           0.187500   0.812500   0.437500     0.00390625
      117           0.187500   0.812500   0.562500     0.00390625
      118           0.187500   0.812500   0.687500     0.00390625
      119           0.187500   0.812500   0.812500     0.00390625
      120           0.187500   0.812500   0.937500     0.00390625
      121           0.187500   0.937500   0.062500     0.00390625
      122           0.187500   0.937500   0.187500     0.00390625
      123           0.187500   0.937500   0.312500     0.00390625
      124           0.187500   0.937500   0.437500     0.00390625
      125           0.187500   0.937500   0.562500     0.00390625
      126           0.187500   0.937500   0.687500     0.00390625
      127           0.187500   0.937500   0.812500     0.00390625
      128           0.187500   0.937500   0.937500     0.00390625
      129           0.312500   0.062500   0.062500     0.00390625
      130           0.312500   0.062500   0.187500     0.00390625
      131           0.312500   0.062500   0.312500     0.00390625
      132           0.312500   0.062500   0.437500     0.00390625
      133           0.312500   0.062500   0.562500     0.00390625
      134           0.312500   0.062500   0.687500     0.00390625
      135           0.312500   0.062500   0.812500     0.00390625
      136           0.312500   0.062500   0.937500     0.00390625
      137           0.312500   0.187500   0.062500     0.00390625
      138           0.312500   0.187500   0.187500     0.00390625
      139           0.312500   0.187500   0.312500     0.00390625
      140           0.312500   0.187500   0.437500     0.00390625
      141           0.312500   0.187500   0.562500     0.00390625
      142           0.312500   0.187500   0.687500     0.00390625
      143           0.312500   0.187500   0.812500     0.00390625
      144           0.312500   0.187500   0.937500     0.00390625
      145           0.312500   0.312500   0.062500     0.00390625
      146           0.312500   0.312500   0.187500     0.00390625
      147           0.312500   0.312500   0.312500     0.00390625
      148           0.312500   0.312500   0.437500     0.00390625
      149           0.312500   0.312500   0.562500     0.00390625
      150           0.312500   0.312500   0.687500     0.00390625
      151           0.312500   0.312500   0.812500     0.00390625
      152           0.312500   0.312500   0.937500     0.00390625
      153           0.312500   0.437500   0.062500     0.00390625
      154           0.312500   0.437500   0.187500     0.00390625
      155           0.312500   0.437500   0.312500     0.00390625
      156           0.312500   0.437500   0.437500     0.00390625
      157           0.312500   0.437500   0.562500     0.00390625
      158           0.312500   0.437500   0.687500     0.00390625
      159           0.312500   0.437500   0.812500     0.00390625
      160           0.312500   0.437500   0.937500     0.00390625
      161           0.312500   0.562500   0.062500     0.00390625
      162           0.312500   0.562500   0.187500     0.00390625
      163           0.312500   0.562500   0.312500     0.00390625
      164           0.312500   0.562500   0.437500     0.00390625
      165           0.312500   0.562500   0.562500     0.00390625
      166           0.312500   0.562500   0.687500     0.00390625
      167           0.312500   0.562500   0.812500     0.00390625
      168           0.312500   0.562500   0.937500     0.00390625
      169           0.312500   0.687500   0.062500     0.00390625
      170           0.312500   0.687500   0.187500     0.00390625
      171           0.312500   0.687500   0.312500     0.00390625
      172           0.312500   0.687500   0.437500     0.00390625
      173           0.312500   0.687500   0.562500     0.00390625
      174           0.312500   0.687500   0.687500     0.00390625
      175           0.312500   0.687500   0.812500     0.00390625
      176           0.312500   0.687500   0.937500     0.00390625
      177           0.312500   0.812500   0.062500     0.00390625
      178           0.312500   0.812500   0.187500     0.00390625
      179           0.312500   0.812500   0.312500     0.00390625
      180           0.312500   0.812500   0.437500     0.00390625
      181           0.312500   0.812500   0.562500     0.00390625
      182           0.312500   0.812500   0.687500     0.00390625
      183           0.312500   0.812500   0.812500     0.00390625
      184           0.312500   0.812500   0.937500     0.00390625
      185           0.312500   0.937500   0.062500     0.00390625
      186           0.312500   0.937500   0.187500     0.00390625
      187           0.312500   0.937500   0.312500     0.00390625
      188           0.312500   0.937500   0.437500     0.00390625
      189           0.312500   0.937500   0.562500     0.00390625
      190           0.312500   0.937500   0.687500     0.00390625
      191           0.312500   0.937500   0.812500     0.00390625
      192           0.312500   0.937500   0.937500     0.00390625
      193           0.437500   0.062500   0.062500     0.00390625
      194           0.437500   0.062500   0.187500     0.00390625
      195           0.437500   0.062500   0.312500     0.00390625
      196           0.437500   0.062500   0.437500     0.00390625
      197           0.437500   0.062500   0.562500     0.00390625
      198           0.437500   0.062500   0.687500     0.00390625
      199           0.437500   0.062500   0.812500     0.00390625
      200           0.437500   0.062500   0.937500     0.00390625
      201           0.437500   0.187500   0.062500     0.00390625
      202           0.437500   0.187500   0.187500     0.00390625
      203           0.437500   0.187500   0.312500     0.00390625
      204           0.437500   0.187500   0.437500     0.00390625
      205           0.437500   0.187500   0.562500     0.00390625
      206           0.437500   0.187500   0.687500     0.00390625
      207           0.437500   0.187500   0.812500     0.00390625
      208           0.437500   0.187500   0.937500     0.00390625
      209           0.437500   0.312500   0.062500     0.00390625
      210           0.437500   0.312500   0.187500     0.00390625
      211           0.437500   0.312500   0.312500     0.00390625
      212           0.437500   0.312500   0.437500     0.00390625
      213           0.437500   0.312500   0.562500     0.00390625
      214           0.437500   0.312500   0.687500     0.00390625
      215           0.437500   0.312500   0.812500     0.00390625
      216           0.437500   0.312500   0.937500     0.00390625
      217           0.437500   0.437500   0.062500     0.00390625
      218           0.437500   0.437500   0.187500     0.00390625
      219           0.437500   0.437500   0.312500     0.00390625
      220           0.437500   0.437500   0.437500     0.00390625
      221           0.437500   0.437500   0.562500     0.00390625
      222           0.437500   0.437500   0.687500     0.00390625
      223           0.437500   0.437500   0.812500     0.00390625
      224           0.437500   0.437500   0.937500     0.00390625
      225           0.437500   0.562500   0.062500     0.00390625
      226           0.437500   0.562500   0.187500     0.00390625
      227           0.437500   0.562500   0.312500     0.00390625
      228           0.437500   0.562500   0.437500     0.00390625
      229           0.437500   0.562500   0.562500     0.00390625
      230           0.437500   0.562500   0.687500     0.00390625
      231           0.437500   0.562500   0.812500     0.00390625
      232           0.437500   0.562500   0.937500     0.00390625
      233           0.437500   0.687500   0.062500     0.00390625
      234           0.437500   0.687500   0.187500     0.00390625
      235           0.437500   0.687500   0.312500     0.00390625
      236           0.437500   0.687500   0.437500     0.00390625
      237           0.437500   0.687500   0.562500     0.00390625
      238           0.437500   0.687500   0.687500     0.00390625
      239           0.437500   0.687500   0.812500     0.00390625
      240           0.437500   0.687500   0.937500     0.00390625
      241           0.437500   0.812500   0.062500     0.00390625
      242           0.437500   0.812500   0.187500     0.00390625
      243           0.437500   0.812500   0.312500     0.00390625
      244           0.437500   0.812500   0.437500     0.00390625
      245           0.437500   0.812500   0.562500     0.00390625
      246           0.437500   0.812500   0.687500     0.00390625
      247           0.437500   0.812500   0.812500     0.00390625
      248           0.437500   0.812500   0.937500     0.00390625
      249           0.437500   0.937500   0.062500     0.00390625
      250           0.437500   0.937500   0.187500     0.00390625
      251           0.437500   0.937500   0.312500     0.00390625
      252           0.437500   0.937500   0.437500     0.00390625
      253           0.437500   0.937500   0.562500     0.00390625
      254           0.437500   0.937500   0.687500     0.00390625
      255           0.437500   0.937500   0.812500     0.00390625
      256           0.437500   0.937500   0.937500     0.00390625
--------------------------------------------------------------------------------


********************************************************************************
*  General input information                                                   *
********************************************************************************

  Species output for all configurations : 

--------------------------------------------------------------------------------
  Species    Type    Atomic    Atomic    Charge       Radii (Angs)     Library
                     Number     Mass       (e)     Cova   Ionic  VDW   Symbol
--------------------------------------------------------------------------------
    C        Core        6      12.01   0.000000   0.770  0.000  1.530          
--------------------------------------------------------------------------------


  Lattice summation method               =    Ewald          (3-D)
                                         =    Parry          (2-D)
                                         =    Saunders et al (1-D)
  Accuracy factor for lattice sums       =   12.000


  Time limit = Infinity

  Maximum range for interatomic potentials =    100000.000000 Angstroms

  Brenner et al 2002 potential to be used with explicit splines for P


********************************************************************************
*  Output for configuration   1                                                *
********************************************************************************


  Components of energy : 

--------------------------------------------------------------------------------
  Interatomic potentials     =           0.00000000 eV    
  Brenner potentials         =         -58.95711466 eV    
  Monopole - monopole (real) =           0.00000000 eV    
  Monopole - monopole (recip)=           0.00000000 eV    
  Monopole - monopole (total)=           0.00000000 eV    
--------------------------------------------------------------------------------
  Total lattice energy       =         -58.95711466 eV    
--------------------------------------------------------------------------------
  Total lattice energy       =           -5688.4603 kJ/(mole unit cells)
--------------------------------------------------------------------------------


  Elastic Constant Matrix: (Units=GPa)

-------------------------------------------------------------------------------
  Indices      1         2         3         4         5         6    
-------------------------------------------------------------------------------
       1   1065.6112  121.6996  121.6996   -0.0000   -0.0000   -0.0000
       2    121.6996 1065.6112  121.6996   -0.0000   -0.0000   -0.0000
       3    121.6996  121.6996 1065.6112   -0.0000   -0.0000   -0.0000
       4     -0.0000   -0.0000   -0.0000  713.6015    0.0000    0.0000
       5     -0.0000   -0.0000   -0.0000    0.0000  713.6015    0.0000
       6     -0.0000   -0.0000   -0.0000    0.0000    0.0000  713.6015
-------------------------------------------------------------------------------

  Elastic Constant Tensor Eigenvalues: (Units=GPa)

-------------------------------------------------------------------------------
     1 =   713.6015     2 =   713.6015     3 =   713.6015
     4 =   943.9115     5 =   943.9115     6 =  1309.0104
-------------------------------------------------------------------------------


  Elastic Compliance Matrix: (Units=1/GPa)

-------------------------------------------------------------------------------
  Indices      1         2         3         4         5         6    
-------------------------------------------------------------------------------
       1    0.000961 -0.000098 -0.000098  0.000000  0.000000  0.000000
       2   -0.000098  0.000961 -0.000098  0.000000  0.000000  0.000000
       3   -0.000098 -0.000098  0.000961  0.000000  0.000000  0.000000
       4    0.000000  0.000000  0.000000  0.001401 -0.000000 -0.000000
       5    0.000000  0.000000  0.000000 -0.000000  0.001401 -0.000000
       6    0.000000  0.000000  0.000000 -0.000000 -0.000000  0.001401
-------------------------------------------------------------------------------

  Mechanical properties :

-------------------------------------------------------------------------------
  Convention :                    Reuss         Voigt         Hill
-------------------------------------------------------------------------------
  Bulk  Modulus (GPa)     =     436.33681     436.33681     436.33681
  Shear Modulus (GPa)     =     592.29688     616.94319     604.62004
-------------------------------------------------------------------------------
  Velocity S-wave (km/s)  =      12.99653      13.26418      13.13104
  Velocity P-wave (km/s)  =      18.69884      18.94778      18.82372
-------------------------------------------------------------------------------
  Compressibility (1/GPa) =    0.00229181
-------------------------------------------------------------------------------
  Stress axis :                     x             y             z
-------------------------------------------------------------------------------
  Youngs Moduli (GPa)     =    1040.66268    1040.66268    1040.66268
-------------------------------------------------------------------------------
  Poissons Ratio (x)      =                     0.10250       0.10250
  Poissons Ratio (y)      =       0.10250                     0.10250
  Poissons Ratio (z)      =       0.10250       0.10250
-------------------------------------------------------------------------------


  Piezoelectric Strain Matrix: (Units=C/m**2)

-------------------------------------------------------------------------------
  Indices      1         2         3         4         5         6    
-------------------------------------------------------------------------------
       x    -0.00000  -0.00000  -0.00000  -0.00000  -0.00000  -0.00000
       y    -0.00000  -0.00000  -0.00000  -0.00000  -0.00000  -0.00000
       z    -0.00000  -0.00000  -0.00000  -0.00000  -0.00000  -0.00000
-------------------------------------------------------------------------------


  Piezoelectric Stress Matrix: (Units=10**-11 C/N)

-------------------------------------------------------------------------------
  Indices      1         2         3         4         5         6    
-------------------------------------------------------------------------------
       x     0.00000   0.00000   0.00000   0.00000   0.00000   0.00000
       y     0.00000   0.00000   0.00000   0.00000   0.00000   0.00000
       z     0.00000   0.00000   0.00000   0.00000   0.00000   0.00000
-------------------------------------------------------------------------------


  Static dielectric constant tensor : 

-------------------------------------------------------------------------------
              x         y         z
-------------------------------------------------------------------------------
       x     1.00000   0.00000   0.00000
       y     0.00000   1.00000   0.00000
       z     0.00000   0.00000   1.00000
--------------------------------------------------------------------------------

  Static refractive indices : 

-------------------------------------------------------------------------------
    1 =    1.00000      2 =    1.00000      3 =    1.00000
-------------------------------------------------------------------------------


  Phonon Calculation : 

  Number of k points for this configuration =      256

--------------------------------------------------------------------------------
  K point      1 =   0.062500  0.062500  0.062500  Weight =    0.004
--------------------------------------------------------------------------------

  Frequencies (cm-1) [NB: Negative implies an imaginary mode]:

  126.54  126.54  200.26 1051.74 1051.74 1051.74 1064.45 1064.45 1064.45
 1213.99 1213.99 1213.99 1260.16 1260.16 1260.16 1283.82 1283.82 1283.82
 1349.00 1349.00 1349.00 1563.53 1563.53 1567.82


--------------------------------------------------------------------------------
  K point      2 =   0.062500  0.062500  0.187500  Weight =    0.004
--------------------------------------------------------------------------------

  Frequencies (cm-1) [NB: Negative implies an imaginary mode]:

  248.28  264.84  359.02  964.85  973.76 1044.29 1044.29 1080.06 1080.06
 1128.93 1167.62 1167.62 1243.21 1243.21 1316.77 1316.77 1321.16 1327.96
 1367.16 1367.16 1415.52 1551.35 1551.86 1564.14


--------------------------------------------------------------------------------
  K point      3 =   0.062500  0.062500  0.312500  Weight =    0.004
--------------------------------------------------------------------------------

  Frequencies (cm-1) [NB: Negative implies an imaginary mode]:

  407.09  418.49  532.22  847.08  852.48 1004.51 1044.64 1044.64 1095.50
 1095.50 1124.02 1124.02 1217.13 1217.13 1347.39 1347.39 1384.67 1384.67
 1387.81 1392.31 1469.22 1528.44 1528.55 1554.12


--------------------------------------------------------------------------------
  K point      4 =   0.062500  0.062500  0.437500  Weight =    0.004
--------------------------------------------------------------------------------

  Frequencies (cm-1) [NB: Negative implies an imaginary mode]:

  565.10  569.77  701.71  713.78  714.80  860.64 1053.76 1053.76 1086.96
 1086.96 1111.26 1111.26 1198.71 1198.71 1364.32 1364.32 1394.24 1394.24
 1446.08 1448.94 1493.17 1494.50 1508.88 1536.40


--------------------------------------------------------------------------------
  K point      5 =   0.062500  0.062500  0.562500  Weight =    0.004
--------------------------------------------------------------------------------

  Frequencies (cm-1) [NB: Negative implies an imaginary mode]:

  565.10  569.77  701.71  713.78  714.80  860.64 1053.76 1053.76 1086.96
 1086.96 1111.26 1111.26 1198.71 1198.71 1364.32 1364.32 1394.24 1394.24
 1446.08 1448.94 1493.17 1494.50 1508.88 1536.40


--------------------------------------------------------------------------------
  K point      6 =   0.062500  0.062500  0.687500  Weight =    0.004
--------------------------------------------------------------------------------

  Frequencies (cm-1) [NB: Negative implies an imaginary mode]:

  407.09  418.49  532.22  847.08  852.48 1004.51 1044.64 1044.64 1095.50
 1095.50 1124.02 1124.02 1217.13 1217.13 1347.39 1347.39 1384.67 1384.67
 1387.81 1392.31 1469.22 1528.44 1528.55 1554.12


--------------------------------------------------------------------------------
  K point      7 =   0.062500  0.062500  0.812500  Weight =    0.004
--------------------------------------------------------------------------------

  Frequencies (cm-1) [NB: Negative implies an imaginary mode]:

  248.28  264.84  359.02  964.85  973.76 1044.29 1044.29 1080.06 1080.06
 1128.93 1167.62 1167.62 1243.21 1243.21 1316.77 1316.77 1321.16 1327.96
 1367.16 1367.16 1415.52 1551.35 1551.86 1564.14


--------------------------------------------------------------------------------
  K point      8 =   0.062500  0.062500  0.937500  Weight =    0.004
--------------------------------------------------------------------------------

  Frequencies (cm-1) [NB: Negative implies an imaginary mode]:

  126.54  126.54  200.26 1051.74 1051.74 1051.74 1064.45 1064.45 1064.45
 1213.99 1213.99 1213.99 1260.16 1260.16 1260.16 1283.82 1283.82 1283.82
 1349.00 1349.00 1349.00 1563.53 1563.53 1567.82


--------------------------------------------------------------------------------
  K point      9 =   0.062500  0.187500  0.062500  Weight =    0.004
--------------------------------------------------------------------------------

  Frequencies (cm-1) [NB: Negative implies an imaginary mode]:

  248.28  264.84  359.02  964.85  973.76 1044.29 1044.29 1080.06 1080.06
 1128.93 1167.62 1167.62 1243.21 1243.21 1316.77 1316.77 1321.16 1327.96
 1367.16 1367.16 1415.52 1551.35 1551.86 1564.14


--------------------------------------------------------------------------------
  K point     10 =   0.062500  0.187500  0.187500  Weight =    0.004
--------------------------------------------------------------------------------

  Frequencies (cm-1) [NB: Negative implies an imaginary mode]:

  296.30  348.99  479.74  962.50  962.50  989.19  989.19 1008.92 1103.81
 1106.00 1106.00 1139.37 1277.34 1282.67 1314.01 1314.01 1351.76 1351.76
 1396.37 1411.40 1411.40 1537.45 1541.22 1561.49


--------------------------------------------------------------------------------
  K point     11 =   0.062500  0.187500  0.312500  Weight =    0.004
--------------------------------------------------------------------------------

  Frequencies (cm-1) [NB: Negative implies an imaginary mode]:

  413.83  475.79  621.66  843.20  873.60  963.26  981.51 1009.80 1010.42
 1085.68 1088.89 1127.39 1258.63 1299.12 1318.50 1379.50 1380.72 1403.37
 1404.11 1415.65 1458.68 1513.97 1520.55 1550.54


--------------------------------------------------------------------------------
  K point     12 =   0.062500  0.187500  0.437500  Weight =    0.004
--------------------------------------------------------------------------------

  Frequencies (cm-1) [NB: Negative implies an imaginary mode]:

  557.91  612.23  704.88  746.70  762.55  893.88  963.21  966.68 1033.12
 1059.45 1087.70 1108.73 1262.67 1280.22 1352.42 1377.40 1411.74 1420.67
 1436.55 1451.05 1480.77 1490.30 1498.98 1529.81


--------------------------------------------------------------------------------
  K point     13 =   0.062500  0.187500  0.562500  Weight =    0.004
--------------------------------------------------------------------------------

  Frequencies (cm-1) [NB: Negative implies an imaginary mode]:

  557.91  612.23  704.88  746.70  762.55  893.88  963.21  966.68 1033.12
 1059.45 1087.70 1108.73 1262.67 1280.22 1352.42 1377.40 1411.74 1420.67
 1436.55 1451.05 1480.77 1490.30 1498.98 1529.81


--------------------------------------------------------------------------------
  K point     14 =   0.062500  0.187500  0.687500  Weight =    0.004
--------------------------------------------------------------------------------

  Frequencies (cm-1) [NB: Negative implies an imaginary mode]:

  413.83  475.79  621.66  843.20  873.60  963.26  981.51 1009.80 1010.42
 1085.68 1088.89 1127.39 1258.63 1299.12 1318.50 1379.50 1380.72 1403.37
 1404.11 1415.65 1458.68 1513.97 1520.55 1550.54


--------------------------------------------------------------------------------
  K point     15 =   0.062500  0.187500  0.812500  Weight =    0.004
--------------------------------------------------------------------------------

  Frequencies (cm-1) [NB: Negative implies an imaginary mode]:

  296.30  348.99  479.74  962.50  962.50  989.19  989.19 1008.92 1103.81
 1106.00 1106.00 1139.37 1277.34 1282.67 1314.01 1314.01 1351.76 1351.76
 1396.37 1411.40 1411.40 1537.45 1541.22 1561.49


--------------------------------------------------------------------------------
  K point     16 =   0.062500  0.187500  0.937500  Weight =    0.004
--------------------------------------------------------------------------------

  Frequencies (cm-1) [NB: Negative implies an imaginary mode]:

  248.28  264.84  359.02  964.85  973.76 1044.29 1044.29 1080.06 1080.06
 1128.93 1167.62 1167.62 1243.21 1243.21 1316.77 1316.77 1321.16 1327.96
 1367.16 1367.16 1415.52 1551.35 1551.86 1564.14


--------------------------------------------------------------------------------
  K point     17 =   0.062500  0.312500  0.062500  Weight =    0.004
--------------------------------------------------------------------------------

  Frequencies (cm-1) [NB: Negative implies an imaginary mode]:

  407.09  418.49  532.22  847.08  852.48 1004.51 1044.64 1044.64 1095.50
 1095.50 1124.02 1124.02 1217.13 1217.13 1347.39 1347.39 1384.67 1384.67
 1387.81 1392.31 1469.22 1528.44 1528.55 1554.12


--------------------------------------------------------------------------------
  K point     18 =   0.062500  0.312500  0.187500  Weight =    0.004
--------------------------------------------------------------------------------

  Frequencies (cm-1) [NB: Negative implies an imaginary mode]:

  413.83  475.79  621.66  843.20  873.60  963.26  981.51 1009.80 1010.42
 1085.68 1088.89 1127.39 1258.63 1299.12 1318.50 1379.50 1380.72 1403.37
 1404.11 1415.65 1458.68 1513.97 1520.55 1550.54


--------------------------------------------------------------------------------
  K point     19 =   0.062500  0.312500  0.312500  Weight =    0.004
--------------------------------------------------------------------------------

  Frequencies (cm-1) [NB: Negative implies an imaginary mode]:

  475.43  574.16  731.53  841.02  841.02  913.22  913.22  922.61 1023.38
 1023.38 1054.53 1112.12 1310.96 1314.33 1366.82 1366.82 1420.09 1420.09
 1435.07 1437.50 1437.50 1490.09 1504.88 1537.94


--------------------------------------------------------------------------------
  K point     20 =   0.062500  0.312500  0.437500  Weight =    0.004
--------------------------------------------------------------------------------

  Frequencies (cm-1) [NB: Negative implies an imaginary mode]:

  581.82  688.38  709.29  804.30  840.62  850.26  877.25  939.82  963.25
 1012.94 1045.01 1076.81 1327.52 1347.96 1362.94 1405.28 1418.73 1434.92
 1441.10 1453.73 1458.69 1478.59 1482.16 1513.86


--------------------------------------------------------------------------------
  K point     21 =   0.062500  0.312500  0.562500  Weight =    0.004
--------------------------------------------------------------------------------

  Frequencies (cm-1) [NB: Negative implies an imaginary mode]:

  581.82  688.38  709.29  804.30  840.62  850.26  877.25  939.82  963.25
 1012.94 1045.01 1076.81 1327.52 1347.96 1362.94 1405.28 1418.73 1434.92
 1441.10 1453.73 1458.69 1478.59 1482.16 1513.86


--------------------------------------------------------------------------------
  K point     22 =   0.062500  0.312500  0.687500  Weight =    0.004
--------------------------------------------------------------------------------

  Frequencies (cm-1) [NB: Negative implies an imaginary mode]:

  475.43  574.16  731.53  841.02  841.02  913.22  913.22  922.61 1023.38
 1023.38 1054.53 1112.12 1310.96 1314.33 1366.82 1366.82 1420.09 1420.09
 1435.07 1437.50 1437.50 1490.09 1504.88 1537.94


--------------------------------------------------------------------------------
  K point     23 =   0.062500  0.312500  0.812500  Weight =    0.004
--------------------------------------------------------------------------------

  Frequencies (cm-1) [NB: Negative implies an imaginary mode]:

  413.83  475.79  621.66  843.20  873.60  963.26  981.51 1009.80 1010.42
 1085.68 1088.89 1127.39 1258.63 1299.12 1318.50 1379.50 1380.72 1403.37
 1404.11 1415.65 1458.68 1513.97 1520.55 1550.54


--------------------------------------------------------------------------------
  K point     24 =   0.062500  0.312500  0.937500  Weight =    0.004
--------------------------------------------------------------------------------

  Frequencies (cm-1) [NB: Negative implies an imaginary mode]:

  407.09  418.49  532.22  847.08  852.48 1004.51 1044.64 1044.64 1095.50
 1095.50 1124.02 1124.02 1217.13 1217.13 1347.39 1347.39 1384.67 1384.67
 1387.81 1392.31 1469.22 1528.44 1528.55 1554.12


--------------------------------------------------------------------------------
  K point     25 =   0.062500  0.437500  0.062500  Weight =    0.004
--------------------------------------------------------------------------------

  Frequencies (cm-1) [NB: Negative implies an imaginary mode]:

  565.10  569.77  701.71  713.78  714.80  860.64 1053.76 1053.76 1086.96
 1086.96 1111.26 1111.26 1198.71 1198.71 1364.32 1364.32 1394.24 1394.24
 1446.08 1448.94 1493.17 1494.50 1508.88 1536.40


--------------------------------------------------------------------------------
  K point     26 =   0.062500  0.437500  0.187500  Weight =    0.004
--------------------------------------------------------------------------------

  Frequencies (cm-1) [NB: Negative implies an imaginary mode]:

  557.91  612.23  704.88  746.70  762.55  893.88  963.21  966.68 1033.12
 1059.45 1087.70 1108.73 1262.67 1280.22 1352.42 1377.40 1411.74 1420.67
 1436.55 1451.05 1480.77 1490.30 1498.98 1529.81


--------------------------------------------------------------------------------
  K point     27 =   0.062500  0.437500  0.312500  Weight =    0.004
--------------------------------------------------------------------------------

  Frequencies (cm-1) [NB: Negative implies an imaginary mode]:

  581.82  688.38  709.29  804.30  840.62  850.26  877.25  939.82  963.25
 1012.94 1045.01 1076.81 1327.52 1347.96 1362.94 1405.28 1418.73 1434.92
 1441.10 1453.73 1458.69 1478.59 1482.16 1513.86


--------------------------------------------------------------------------------
  K point     28 =   0.062500  0.437500  0.437500  Weight =    0.004
--------------------------------------------------------------------------------

  Frequencies (cm-1) [NB: Negative implies an imaginary mode]:

  646.06  740.25  740.25  780.81  798.47  876.02  876.02  918.04  949.51
  987.45  987.45 1033.61 1367.97 1395.19 1395.19 1401.03 1430.05 1442.98
 1442.98 1452.85 1458.00 1458.00 1468.80 1487.20


--------------------------------------------------------------------------------
  K point     29 =   0.062500  0.437500  0.562500  Weight =    0.004
--------------------------------------------------------------------------------

  Frequencies (cm-1) [NB: Negative implies an imaginary mode]:

  646.06  740.25  740.25  780.81  798.47  876.02  876.02  918.04  949.51
  987.45  987.45 1033.61 1367.97 1395.19 1395.19 1401.03 1430.05 1442.98
 1442.98 1452.85 1458.00 1458.00 1468.80 1487.20


--------------------------------------------------------------------------------
  K point     30 =   0.062500  0.437500  0.687500  Weight =    0.004
--------------------------------------------------------------------------------

  Frequencies (cm-1) [NB: Negative implies an imaginary mode]:

  581.82  688.38  709.29  804.30  840.62  850.26  877.25  939.82  963.25
 1012.94 1045.01 1076.81 1327.52 1347.96 1362.94 1405.28 1418.73 1434.92
 1441.10 1453.73 1458.69 1478.59 1482.16 1513.86


--------------------------------------------------------------------------------
  K point     31 =   0.062500  0.437500  0.812500  Weight =    0.004
--------------------------------------------------------------------------------

  Frequencies (cm-1) [NB: Negative implies an imaginary mode]:

  557.91  612.23  704.88  746.70  762.55  893.88  963.21  966.68 1033.12
 1059.45 1087.70 1108.73 1262.67 1280.22 1352.42 1377.40 1411.74 1420.67
 1436.55 1451.05 1480.77 1490.30 1498.98 1529.81


--------------------------------------------------------------------------------
  K point     32 =   0.062500  0.437500  0.937500  Weight =    0.004
--------------------------------------------------------------------------------

  Frequencies (cm-1) [NB: Negative implies an imaginary mode]:

  565.10  569.77  701.71  713.78  714.80  860.64 1053.76 1053.76 1086.96
 1086.96 1111.26 1111.26 1198.71 1198.71 1364.32 1364.32 1394.24 1394.24
 1446.08 1448.94 1493.17 1494.50 1508.88 1536.40


--------------------------------------------------------------------------------
  K point     33 =   0.062500  0.562500  0.062500  Weight =    0.004
--------------------------------------------------------------------------------

  Frequencies (cm-1) [NB: Negative implies an imaginary mode]:

  565.10  569.77  701.71  713.78  714.80  860.64 1053.76 1053.76 1086.96
 1086.96 1111.26 1111.26 1198.71 1198.71 1364.32 1364.32 1394.24 1394.24
 1446.08 1448.94 1493.17 1494.50 1508.88 1536.40


--------------------------------------------------------------------------------
  K point     34 =   0.062500  0.562500  0.187500  Weight =    0.004
--------------------------------------------------------------------------------

  Frequencies (cm-1) [NB: Negative implies an imaginary mode]:

  557.91  612.23  704.88  746.70  762.55  893.88  963.21  966.68 1033.12
 1059.45 1087.70 1108.73 1262.67 1280.22 1352.42 1377.40 1411.74 1420.67
 1436.55 1451.05 1480.77 1490.30 1498.98 1529.81


--------------------------------------------------------------------------------
  K point     35 =   0.062500  0.562500  0.312500  Weight =    0.004
--------------------------------------------------------------------------------

  Frequencies (cm-1) [NB: Negative implies an imaginary mode]:

  581.82  688.38  709.29  804.30  840.62  850.26  877.25  939.82  963.25
 1012.94 1045.01 1076.81 1327.52 1347.96 1362.94 1405.28 1418.73 1434.92
 1441.10 1453.73 1458.69 1478.59 1482.16 1513.86


--------------------------------------------------------------------------------
  K point     36 =   0.062500  0.562500  0.437500  Weight =    0.004
--------------------------------------------------------------------------------

  Frequencies (cm-1) [NB: Negative implies an imaginary mode]:

  646.06  740.25  740.25  780.81  798.47  876.02  876.02  918.04  949.51
  987.45  987.45 1033.61 1367.97 1395.19 1395.19 1401.03 1430.05 1442.98
 1442.98 1452.85 1458.00 1458.00 1468.80 1487.20


--------------------------------------------------------------------------------
  K point     37 =   0.062500  0.562500  0.562500  Weight =    0.004
--------------------------------------------------------------------------------

  Frequencies (cm-1) [NB: Negative implies an imaginary mode]:

  646.06  740.25  740.25  780.81  798.47  876.02  876.02  918.04  949.51
  987.45  987.45 1033.61 1367.97 1395.19 1395.19 1401.03 1430.05 1442.98
 1442.98 1452.85 1458.00 1458.00 1468.80 1487.20


--------------------------------------------------------------------------------
  K point     38 =   0.062500  0.562500  0.687500  Weight =    0.004
--------------------------------------------------------------------------------

  Frequencies (cm-1) [NB: Negative implies an imaginary mode]:

  581.82  688.38  709.29  804.30  840.62  850.26  877.25  939.82  963.25
 1012.94 1045.01 1076.81 1327.52 1347.96 1362.94 1405.28 1418.73 1434.92
 1441.10 1453.73 1458.69 1478.59 1482.16 1513.86


--------------------------------------------------------------------------------
  K point     39 =   0.062500  0.562500  0.812500  Weight =    0.004
--------------------------------------------------------------------------------

  Frequencies (cm-1) [NB: Negative implies an imaginary mode]:

  557.91  612.23  704.88  746.70  762.55  893.88  963.21  966.68 1033.12
 1059.45 1087.70 1108.73 1262.67 1280.22 1352.42 1377.40 1411.74 1420.67
 1436.55 1451.05 1480.77 1490.30 1498.98 1529.81


--------------------------------------------------------------------------------
  K point     40 =   0.062500  0.562500  0.937500  Weight =    0.004
--------------------------------------------------------------------------------

  Frequencies (cm-1) [NB: Negative implies an imaginary mode]:

  565.10  569.77  701.71  713.78  714.80  860.64 1053.76 1053.76 1086.96
 1086.96 1111.26 1111.26 1198.71 1198.71 1364.32 1364.32 1394.24 1394.24
 1446.08 1448.94 1493.17 1494.50 1508.88 1536.40


--------------------------------------------------------------------------------
  K point     41 =   0.062500  0.687500  0.062500  Weight =    0.004
--------------------------------------------------------------------------------

  Frequencies (cm-1) [NB: Negative implies an imaginary mode]:

  407.09  418.49  532.22  847.08  852.48 1004.51 1044.64 1044.64 1095.50
 1095.50 1124.02 1124.02 1217.13 1217.13 1347.39 1347.39 1384.67 1384.67
 1387.81 1392.31 1469.22 1528.44 1528.55 1554.12


--------------------------------------------------------------------------------
  K point     42 =   0.062500  0.687500  0.187500  Weight =    0.004
--------------------------------------------------------------------------------

  Frequencies (cm-1) [NB: Negative implies an imaginary mode]:

  413.83  475.79  621.66  843.20  873.60  963.26  981.51 1009.80 1010.42
 1085.68 1088.89 1127.39 1258.63 1299.12 1318.50 1379.50 1380.72 1403.37
 1404.11 1415.65 1458.68 1513.97 1520.55 1550.54


--------------------------------------------------------------------------------
  K point     43 =   0.062500  0.687500  0.312500  Weight =    0.004
--------------------------------------------------------------------------------

  Frequencies (cm-1) [NB: Negative implies an imaginary mode]:

  475.43  574.16  731.53  841.02  841.02  913.22  913.22  922.61 1023.38
 1023.38 1054.53 1112.12 1310.96 1314.33 1366.82 1366.82 1420.09 1420.09
 1435.07 1437.50 1437.50 1490.09 1504.88 1537.94


--------------------------------------------------------------------------------
  K point     44 =   0.062500  0.687500  0.437500  Weight =    0.004
--------------------------------------------------------------------------------

  Frequencies (cm-1) [NB: Negative implies an imaginary mode]:

  581.82  688.38  709.29  804.30  840.62  850.26  877.25  939.82  963.25
 1012.94 1045.01 1076.81 1327.52 1347.96 1362.94 1405.28 1418.73 1434.92
 1441.10 1453.73 1458.69 1478.59 1482.16 1513.86


--------------------------------------------------------------------------------
  K point     45 =   0.062500  0.687500  0.562500  Weight =    0.004
--------------------------------------------------------------------------------

  Frequencies (cm-1) [NB: Negative implies an imaginary mode]:

  581.82  688.38  709.29  804.30  840.62  850.26  877.25  939.82  963.25
 1012.94 1045.01 1076.81 1327.52 1347.96 1362.94 1405.28 1418.73 1434.92
 1441.10 1453.73 1458.69 1478.59 1482.16 1513.86


--------------------------------------------------------------------------------
  K point     46 =   0.062500  0.687500  0.687500  Weight =    0.004
--------------------------------------------------------------------------------

  Frequencies (cm-1) [NB: Negative implies an imaginary mode]:

  475.43  574.16  731.53  841.02  841.02  913.22  913.22  922.61 1023.38
 1023.38 1054.53 1112.12 1310.96 1314.33 1366.82 1366.82 1420.09 1420.09
 1435.07 1437.50 1437.50 1490.09 1504.88 1537.94


--------------------------------------------------------------------------------
  K point     47 =   0.062500  0.687500  0.812500  Weight =    0.004
--------------------------------------------------------------------------------

  Frequencies (cm-1) [NB: Negative implies an imaginary mode]:

  413.83  475.79  621.66  843.20  873.60  963.26  981.51 1009.80 1010.42
 1085.68 1088.89 1127.39 1258.63 1299.12 1318.50 1379.50 1380.72 1403.37
 1404.11 1415.65 1458.68 1513.97 1520.55 1550.54


--------------------------------------------------------------------------------
  K point     48 =   0.062500  0.687500  0.937500  Weight =    0.004
--------------------------------------------------------------------------------

  Frequencies (cm-1) [NB: Negative implies an imaginary mode]:

  407.09  418.49  532.22  847.08  852.48 1004.51 1044.64 1044.64 1095.50
 1095.50 1124.02 1124.02 1217.13 1217.13 1347.39 1347.39 1384.67 1384.67
 1387.81 1392.31 1469.22 1528.44 1528.55 1554.12


--------------------------------------------------------------------------------
  K point     49 =   0.062500  0.812500  0.062500  Weight =    0.004
--------------------------------------------------------------------------------

  Frequencies (cm-1) [NB: Negative implies an imaginary mode]:

  248.28  264.84  359.02  964.85  973.76 1044.29 1044.29 1080.06 1080.06
 1128.93 1167.62 1167.62 1243.21 1243.21 1316.77 1316.77 1321.16 1327.96
 1367.16 1367.16 1415.52 1551.35 1551.86 1564.14


--------------------------------------------------------------------------------
  K point     50 =   0.062500  0.812500  0.187500  Weight =    0.004
--------------------------------------------------------------------------------

  Frequencies (cm-1) [NB: Negative implies an imaginary mode]:

  296.30  348.99  479.74  962.50  962.50  989.19  989.19 1008.92 1103.81
 1106.00 1106.00 1139.37 1277.34 1282.67 1314.01 1314.01 1351.76 1351.76
 1396.37 1411.40 1411.40 1537.45 1541.22 1561.49


--------------------------------------------------------------------------------
  K point     51 =   0.062500  0.812500  0.312500  Weight =    0.004
--------------------------------------------------------------------------------

  Frequencies (cm-1) [NB: Negative implies an imaginary mode]:

  413.83  475.79  621.66  843.20  873.60  963.26  981.51 1009.80 1010.42
 1085.68 1088.89 1127.39 1258.63 1299.12 1318.50 1379.50 1380.72 1403.37
 1404.11 1415.65 1458.68 1513.97 1520.55 1550.54


--------------------------------------------------------------------------------
  K point     52 =   0.062500  0.812500  0.437500  Weight =    0.004
--------------------------------------------------------------------------------

  Frequencies (cm-1) [NB: Negative implies an imaginary mode]:

  557.91  612.23  704.88  746.70  762.55  893.88  963.21  966.68 1033.12
 1059.45 1087.70 1108.73 1262.67 1280.22 1352.42 1377.40 1411.74 1420.67
 1436.55 1451.05 1480.77 1490.30 1498.98 1529.81


--------------------------------------------------------------------------------
  K point     53 =   0.062500  0.812500  0.562500  Weight =    0.004
--------------------------------------------------------------------------------

  Frequencies (cm-1) [NB: Negative implies an imaginary mode]:

  557.91  612.23  704.88  746.70  762.55  893.88  963.21  966.68 1033.12
 1059.45 1087.70 1108.73 1262.67 1280.22 1352.42 1377.40 1411.74 1420.67
 1436.55 1451.05 1480.77 1490.30 1498.98 1529.81


--------------------------------------------------------------------------------
  K point     54 =   0.062500  0.812500  0.687500  Weight =    0.004
--------------------------------------------------------------------------------

  Frequencies (cm-1) [NB: Negative implies an imaginary mode]:

  413.83  475.79  621.66  843.20  873.60  963.26  981.51 1009.80 1010.42
 1085.68 1088.89 1127.39 1258.63 1299.12 1318.50 1379.50 1380.72 1403.37
 1404.11 1415.65 1458.68 1513.97 1520.55 1550.54


--------------------------------------------------------------------------------
  K point     55 =   0.062500  0.812500  0.812500  Weight =    0.004
--------------------------------------------------------------------------------

  Frequencies (cm-1) [NB: Negative implies an imaginary mode]:

  296.30  348.99  479.74  962.50  962.50  989.19  989.19 1008.92 1103.81
 1106.00 1106.00 1139.37 1277.34 1282.67 1314.01 1314.01 1351.76 1351.76
 1396.37 1411.40 1411.40 1537.45 1541.22 1561.49


--------------------------------------------------------------------------------
  K point     56 =   0.062500  0.812500  0.937500  Weight =    0.004
--------------------------------------------------------------------------------

  Frequencies (cm-1) [NB: Negative implies an imaginary mode]:

  248.28  264.84  359.02  964.85  973.76 1044.29 1044.29 1080.06 1080.06
 1128.93 1167.62 1167.62 1243.21 1243.21 1316.77 1316.77 1321.16 1327.96
 1367.16 1367.16 1415.52 1551.35 1551.86 1564.14


--------------------------------------------------------------------------------
  K point     57 =   0.062500  0.937500  0.062500  Weight =    0.004
--------------------------------------------------------------------------------

  Frequencies (cm-1) [NB: Negative implies an imaginary mode]:

  126.54  126.54  200.26 1051.74 1051.74 1051.74 1064.45 1064.45 1064.45
 1213.99 1213.99 1213.99 1260.16 1260.16 1260.16 1283.82 1283.82 1283.82
 1349.00 1349.00 1349.00 1563.53 1563.53 1567.82


--------------------------------------------------------------------------------
  K point     58 =   0.062500  0.937500  0.187500  Weight =    0.004
--------------------------------------------------------------------------------

  Frequencies (cm-1) [NB: Negative implies an imaginary mode]:

  248.28  264.84  359.02  964.85  973.76 1044.29 1044.29 1080.06 1080.06
 1128.93 1167.62 1167.62 1243.21 1243.21 1316.77 1316.77 1321.16 1327.96
 1367.16 1367.16 1415.52 1551.35 1551.86 1564.14


--------------------------------------------------------------------------------
  K point     59 =   0.062500  0.937500  0.312500  Weight =    0.004
--------------------------------------------------------------------------------

  Frequencies (cm-1) [NB: Negative implies an imaginary mode]:

  407.09  418.49  532.22  847.08  852.48 1004.51 1044.64 1044.64 1095.50
 1095.50 1124.02 1124.02 1217.13 1217.13 1347.39 1347.39 1384.67 1384.67
 1387.81 1392.31 1469.22 1528.44 1528.55 1554.12


--------------------------------------------------------------------------------
  K point     60 =   0.062500  0.937500  0.437500  Weight =    0.004
--------------------------------------------------------------------------------

  Frequencies (cm-1) [NB: Negative implies an imaginary mode]:

  565.10  569.77  701.71  713.78  714.80  860.64 1053.76 1053.76 1086.96
 1086.96 1111.26 1111.26 1198.71 1198.71 1364.32 1364.32 1394.24 1394.24
 1446.08 1448.94 1493.17 1494.50 1508.88 1536.40


--------------------------------------------------------------------------------
  K point     61 =   0.062500  0.937500  0.562500  Weight =    0.004
--------------------------------------------------------------------------------

  Frequencies (cm-1) [NB: Negative implies an imaginary mode]:

  565.10  569.77  701.71  713.78  714.80  860.64 1053.76 1053.76 1086.96
 1086.96 1111.26 1111.26 1198.71 1198.71 1364.32 1364.32 1394.24 1394.24
 1446.08 1448.94 1493.17 1494.50 1508.88 1536.40


--------------------------------------------------------------------------------
  K point     62 =   0.062500  0.937500  0.687500  Weight =    0.004
--------------------------------------------------------------------------------

  Frequencies (cm-1) [NB: Negative implies an imaginary mode]:

  407.09  418.49  532.22  847.08  852.48 1004.51 1044.64 1044.64 1095.50
 1095.50 1124.02 1124.02 1217.13 1217.13 1347.39 1347.39 1384.67 1384.67
 1387.81 1392.31 1469.22 1528.44 1528.55 1554.12


--------------------------------------------------------------------------------
  K point     63 =   0.062500  0.937500  0.812500  Weight =    0.004
--------------------------------------------------------------------------------

  Frequencies (cm-1) [NB: Negative implies an imaginary mode]:

  248.28  264.84  359.02  964.85  973.76 1044.29 1044.29 1080.06 1080.06
 1128.93 1167.62 1167.62 1243.21 1243.21 1316.77 1316.77 1321.16 1327.96
 1367.16 1367.16 1415.52 1551.35 1551.86 1564.14


--------------------------------------------------------------------------------
  K point     64 =   0.062500  0.937500  0.937500  Weight =    0.004
--------------------------------------------------------------------------------

  Frequencies (cm-1) [NB: Negative implies an imaginary mode]:

  126.54  126.54  200.26 1051.74 1051.74 1051.74 1064.45 1064.45 1064.45
 1213.99 1213.99 1213.99 1260.16 1260.16 1260.16 1283.82 1283.82 1283.82
 1349.00 1349.00 1349.00 1563.53 1563.53 1567.82


--------------------------------------------------------------------------------
  K point     65 =   0.187500  0.062500  0.062500  Weight =    0.004
--------------------------------------------------------------------------------

  Frequencies (cm-1) [NB: Negative implies an imaginary mode]:

  248.28  264.84  359.02  964.85  973.76 1044.29 1044.29 1080.06 1080.06
 1128.93 1167.62 1167.62 1243.21 1243.21 1316.77 1316.77 1321.16 1327.96
 1367.16 1367.16 1415.52 1551.35 1551.86 1564.14


--------------------------------------------------------------------------------
  K point     66 =   0.187500  0.062500  0.187500  Weight =    0.004
--------------------------------------------------------------------------------

  Frequencies (cm-1) [NB: Negative implies an imaginary mode]:

  296.30  348.99  479.74  962.50  962.50  989.19  989.19 1008.92 1103.81
 1106.00 1106.00 1139.37 1277.34 1282.67 1314.01 1314.01 1351.76 1351.76
 1396.37 1411.40 1411.40 1537.45 1541.22 1561.49


--------------------------------------------------------------------------------
  K point     67 =   0.187500  0.062500  0.312500  Weight =    0.004
--------------------------------------------------------------------------------

  Frequencies (cm-1) [NB: Negative implies an imaginary mode]:

  413.83  475.79  621.66  843.20  873.60  963.26  981.51 1009.80 1010.42
 1085.68 1088.89 1127.39 1258.63 1299.12 1318.50 1379.50 1380.72 1403.37
 1404.11 1415.65 1458.68 1513.97 1520.55 1550.54


--------------------------------------------------------------------------------
  K point     68 =   0.187500  0.062500  0.437500  Weight =    0.004
--------------------------------------------------------------------------------

  Frequencies (cm-1) [NB: Negative implies an imaginary mode]:

  557.91  612.23  704.88  746.70  762.55  893.88  963.21  966.68 1033.12
 1059.45 1087.70 1108.73 1262.67 1280.22 1352.42 1377.40 1411.74 1420.67
 1436.55 1451.05 1480.77 1490.30 1498.98 1529.81


--------------------------------------------------------------------------------
  K point     69 =   0.187500  0.062500  0.562500  Weight =    0.004
--------------------------------------------------------------------------------

  Frequencies (cm-1) [NB: Negative implies an imaginary mode]:

  557.91  612.23  704.88  746.70  762.55  893.88  963.21  966.68 1033.12
 1059.45 1087.70 1108.73 1262.67 1280.22 1352.42 1377.40 1411.74 1420.67
 1436.55 1451.05 1480.77 1490.30 1498.98 1529.81


--------------------------------------------------------------------------------
  K point     70 =   0.187500  0.062500  0.687500  Weight =    0.004
--------------------------------------------------------------------------------

  Frequencies (cm-1) [NB: Negative implies an imaginary mode]:

  413.83  475.79  621.66  843.20  873.60  963.26  981.51 1009.80 1010.42
 1085.68 1088.89 1127.39 1258.63 1299.12 1318.50 1379.50 1380.72 1403.37
 1404.11 1415.65 1458.68 1513.97 1520.55 1550.54


--------------------------------------------------------------------------------
  K point     71 =   0.187500  0.062500  0.812500  Weight =    0.004
--------------------------------------------------------------------------------

  Frequencies (cm-1) [NB: Negative implies an imaginary mode]:

  296.30  348.99  479.74  962.50  962.50  989.19  989.19 1008.92 1103.81
 1106.00 1106.00 1139.37 1277.34 1282.67 1314.01 1314.01 1351.76 1351.76
 1396.37 1411.40 1411.40 1537.45 1541.22 1561.49


--------------------------------------------------------------------------------
  K point     72 =   0.187500  0.062500  0.937500  Weight =    0.004
--------------------------------------------------------------------------------

  Frequencies (cm-1) [NB: Negative implies an imaginary mode]:

  248.28  264.84  359.02  964.85  973.76 1044.29 1044.29 1080.06 1080.06
 1128.93 1167.62 1167.62 1243.21 1243.21 1316.77 1316.77 1321.16 1327.96
 1367.16 1367.16 1415.52 1551.35 1551.86 1564.14


--------------------------------------------------------------------------------
  K point     73 =   0.187500  0.187500  0.062500  Weight =    0.004
--------------------------------------------------------------------------------

  Frequencies (cm-1) [NB: Negative implies an imaginary mode]:

  296.30  348.99  479.74  962.50  962.50  989.19  989.19 1008.92 1103.81
 1106.00 1106.00 1139.37 1277.34 1282.67 1314.01 1314.01 1351.76 1351.76
 1396.37 1411.40 1411.40 1537.45 1541.22 1561.49


--------------------------------------------------------------------------------
  K point     74 =   0.187500  0.187500  0.187500  Weight =    0.004
--------------------------------------------------------------------------------

  Frequencies (cm-1) [NB: Negative implies an imaginary mode]:

  369.09  369.09  580.70  941.52  941.52  941.52  999.51  999.51  999.51
 1101.92 1101.92 1101.92 1322.12 1322.12 1322.12 1349.19 1349.19 1349.19
 1416.36 1416.36 1416.36 1526.56 1526.56 1560.04


--------------------------------------------------------------------------------
  K point     75 =   0.187500  0.187500  0.312500  Weight =    0.004
--------------------------------------------------------------------------------

  Frequencies (cm-1) [NB: Negative implies an imaginary mode]:

  456.85  479.62  704.80  841.39  869.12  926.07  926.07  993.01  993.01
 1031.75 1106.38 1106.38 1316.38 1316.38 1362.31 1362.31 1377.92 1407.68
 1420.41 1420.41 1450.91 1504.74 1504.80 1549.50


--------------------------------------------------------------------------------
  K point     76 =   0.187500  0.187500  0.437500  Weight =    0.004
--------------------------------------------------------------------------------

  Frequencies (cm-1) [NB: Negative implies an imaginary mode]:

  585.32  602.66  725.76  727.75  827.41  918.99  918.99  938.40  982.12
  982.12 1113.92 1113.92 1308.25 1308.25 1375.70 1375.70 1421.31 1421.31
 1429.51 1447.50 1472.29 1478.33 1492.38 1527.03


--------------------------------------------------------------------------------
  K point     77 =   0.187500  0.187500  0.562500  Weight =    0.004
--------------------------------------------------------------------------------

  Frequencies (cm-1) [NB: Negative implies an imaginary mode]:

  585.32  602.66  725.76  727.75  827.41  918.99  918.99  938.40  982.12
  982.12 1113.92 1113.92 1308.25 1308.25 1375.70 1375.70 1421.31 1421.31
 1429.51 1447.50 1472.29 1478.33 1492.38 1527.03


--------------------------------------------------------------------------------
  K point     78 =   0.187500  0.187500  0.687500  Weight =    0.004
--------------------------------------------------------------------------------

  Frequencies (cm-1) [NB: Negative implies an imaginary mode]:

  456.85  479.62  704.80  841.39  869.12  926.07  926.07  993.01  993.01
 1031.75 1106.38 1106.38 1316.38 1316.38 1362.31 1362.31 1377.92 1407.68
 1420.41 1420.41 1450.91 1504.74 1504.80 1549.50


--------------------------------------------------------------------------------
  K point     79 =   0.187500  0.187500  0.812500  Weight =    0.004
--------------------------------------------------------------------------------

  Frequencies (cm-1) [NB: Negative implies an imaginary mode]:

  369.09  369.09  580.70  941.52  941.52  941.52  999.51  999.51  999.51
 1101.92 1101.92 1101.92 1322.12 1322.12 1322.12 1349.19 1349.19 1349.19
 1416.36 1416.36 1416.36 1526.56 1526.56 1560.04


--------------------------------------------------------------------------------
  K point     80 =   0.187500  0.187500  0.937500  Weight =    0.004
--------------------------------------------------------------------------------

  Frequencies (cm-1) [NB: Negative implies an imaginary mode]:

  296.30  348.99  479.74  962.50  962.50  989.19  989.19 1008.92 1103.81
 1106.00 1106.00 1139.37 1277.34 1282.67 1314.01 1314.01 1351.76 1351.76
 1396.37 1411.40 1411.40 1537.45 1541.22 1561.49


--------------------------------------------------------------------------------
  K point     81 =   0.187500  0.312500  0.062500  Weight =    0.004
--------------------------------------------------------------------------------

  Frequencies (cm-1) [NB: Negative implies an imaginary mode]:

  413.83  475.79  621.66  843.20  873.60  963.26  981.51 1009.80 1010.42
 1085.68 1088.89 1127.39 1258.63 1299.12 1318.50 1379.50 1380.72 1403.37
 1404.11 1415.65 1458.68 1513.97 1520.55 1550.54


--------------------------------------------------------------------------------
  K point     82 =   0.187500  0.312500  0.187500  Weight =    0.004
--------------------------------------------------------------------------------

  Frequencies (cm-1) [NB: Negative implies an imaginary mode]:

  456.85  479.62  704.80  841.39  869.12  926.07  926.07  993.01  993.01
 1031.75 1106.38 1106.38 1316.38 1316.38 1362.31 1362.31 1377.92 1407.68
 1420.41 1420.41 1450.91 1504.74 1504.80 1549.50


--------------------------------------------------------------------------------
  K point     83 =   0.187500  0.312500  0.312500  Weight =    0.004
--------------------------------------------------------------------------------

  Frequencies (cm-1) [NB: Negative implies an imaginary mode]:

  512.03  555.76  808.22  834.03  834.03  878.98  878.98  883.90  963.54
 1062.14 1062.14 1119.60 1336.91 1360.22 1369.29 1369.29 1416.84 1416.84
 1430.61 1435.66 1435.66 1481.31 1487.16 1539.19


--------------------------------------------------------------------------------
  K point     84 =   0.187500  0.312500  0.437500  Weight =    0.004
--------------------------------------------------------------------------------

  Frequencies (cm-1) [NB: Negative implies an imaginary mode]:

  604.75  657.66  719.88  766.62  834.63  851.32  901.07  908.55  930.72
  995.20 1092.06 1113.85 1345.64 1356.97 1384.72 1412.04 1414.85 1427.72
 1432.71 1442.31 1452.09 1464.42 1478.54 1515.87


--------------------------------------------------------------------------------
  K point     85 =   0.187500  0.312500  0.562500  Weight =    0.004
--------------------------------------------------------------------------------

  Frequencies (cm-1) [NB: Negative implies an imaginary mode]:

  604.75  657.66  719.88  766.62  834.63  851.32  901.07  908.55  930.72
  995.20 1092.06 1113.85 1345.64 1356.97 1384.72 1412.04 1414.85 1427.72
 1432.71 1442.31 1452.09 1464.42 1478.54 1515.87


--------------------------------------------------------------------------------
  K point     86 =   0.187500  0.312500  0.687500  Weight =    0.004
--------------------------------------------------------------------------------

  Frequencies (cm-1) [NB: Negative implies an imaginary mode]:

  512.03  555.76  808.22  834.03  834.03  878.98  878.98  883.90  963.54
 1062.14 1062.14 1119.60 1336.91 1360.22 1369.29 1369.29 1416.84 1416.84
 1430.61 1435.66 1435.66 1481.31 1487.16 1539.19


--------------------------------------------------------------------------------
  K point     87 =   0.187500  0.312500  0.812500  Weight =    0.004
--------------------------------------------------------------------------------

  Frequencies (cm-1) [NB: Negative implies an imaginary mode]:

  456.85  479.62  704.80  841.39  869.12  926.07  926.07  993.01  993.01
 1031.75 1106.38 1106.38 1316.38 1316.38 1362.31 1362.31 1377.92 1407.68
 1420.41 1420.41 1450.91 1504.74 1504.80 1549.50


--------------------------------------------------------------------------------
  K point     88 =   0.187500  0.312500  0.937500  Weight =    0.004
--------------------------------------------------------------------------------

  Frequencies (cm-1) [NB: Negative implies an imaginary mode]:

  413.83  475.79  621.66  843.20  873.60  963.26  981.51 1009.80 1010.42
 1085.68 1088.89 1127.39 1258.63 1299.12 1318.50 1379.50 1380.72 1403.37
 1404.11 1415.65 1458.68 1513.97 1520.55 1550.54


--------------------------------------------------------------------------------
  K point     89 =   0.187500  0.437500  0.062500  Weight =    0.004
--------------------------------------------------------------------------------

  Frequencies (cm-1) [NB: Negative implies an imaginary mode]:

  557.91  612.23  704.88  746.70  762.55  893.88  963.21  966.68 1033.12
 1059.45 1087.70 1108.73 1262.67 1280.22 1352.42 1377.40 1411.74 1420.67
 1436.55 1451.05 1480.77 1490.30 1498.98 1529.81


--------------------------------------------------------------------------------
  K point     90 =   0.187500  0.437500  0.187500  Weight =    0.004
--------------------------------------------------------------------------------

  Frequencies (cm-1) [NB: Negative implies an imaginary mode]:

  585.32  602.66  725.76  727.75  827.41  918.99  918.99  938.40  982.12
  982.12 1113.92 1113.92 1308.25 1308.25 1375.70 1375.70 1421.31 1421.31
 1429.51 1447.50 1472.29 1478.33 1492.38 1527.03


--------------------------------------------------------------------------------
  K point     91 =   0.187500  0.437500  0.312500  Weight =    0.004
--------------------------------------------------------------------------------

  Frequencies (cm-1) [NB: Negative implies an imaginary mode]:

  604.75  657.66  719.88  766.62  834.63  851.32  901.07  908.55  930.72
  995.20 1092.06 1113.85 1345.64 1356.97 1384.72 1412.04 1414.85 1427.72
 1432.71 1442.31 1452.09 1464.42 1478.54 1515.87


--------------------------------------------------------------------------------
  K point     92 =   0.187500  0.437500  0.437500  Weight =    0.004
--------------------------------------------------------------------------------

  Frequencies (cm-1) [NB: Negative implies an imaginary mode]:

  657.61  734.81  739.88  739.88  786.54  818.31  818.31  875.04  985.46
 1048.41 1048.41 1090.06 1373.58 1395.35 1395.35 1409.74 1426.02 1432.33
 1432.33 1444.09 1448.32 1459.50 1459.50 1493.24


--------------------------------------------------------------------------------
  K point     93 =   0.187500  0.437500  0.562500  Weight =    0.004
--------------------------------------------------------------------------------

  Frequencies (cm-1) [NB: Negative implies an imaginary mode]:

  657.61  734.81  739.88  739.88  786.54  818.31  818.31  875.04  985.46
 1048.41 1048.41 1090.06 1373.58 1395.35 1395.35 1409.74 1426.02 1432.33
 1432.33 1444.09 1448.32 1459.50 1459.50 1493.24


--------------------------------------------------------------------------------
  K point     94 =   0.187500  0.437500  0.687500  Weight =    0.004
--------------------------------------------------------------------------------

  Frequencies (cm-1) [NB: Negative implies an imaginary mode]:

  604.75  657.66  719.88  766.62  834.63  851.32  901.07  908.55  930.72
  995.20 1092.06 1113.85 1345.64 1356.97 1384.72 1412.04 1414.85 1427.72
 1432.71 1442.31 1452.09 1464.42 1478.54 1515.87


--------------------------------------------------------------------------------
  K point     95 =   0.187500  0.437500  0.812500  Weight =    0.004
--------------------------------------------------------------------------------

  Frequencies (cm-1) [NB: Negative implies an imaginary mode]:

  585.32  602.66  725.76  727.75  827.41  918.99  918.99  938.40  982.12
  982.12 1113.92 1113.92 1308.25 1308.25 1375.70 1375.70 1421.31 1421.31
 1429.51 1447.50 1472.29 1478.33 1492.38 1527.03


--------------------------------------------------------------------------------
  K point     96 =   0.187500  0.437500  0.937500  Weight =    0.004
--------------------------------------------------------------------------------

  Frequencies (cm-1) [NB: Negative implies an imaginary mode]:

  557.91  612.23  704.88  746.70  762.55  893.88  963.21  966.68 1033.12
 1059.45 1087.70 1108.73 1262.67 1280.22 1352.42 1377.40 1411.74 1420.67
 1436.55 1451.05 1480.77 1490.30 1498.98 1529.81


--------------------------------------------------------------------------------
  K point     97 =   0.187500  0.562500  0.062500  Weight =    0.004
--------------------------------------------------------------------------------

  Frequencies (cm-1) [NB: Negative implies an imaginary mode]:

  557.91  612.23  704.88  746.70  762.55  893.88  963.21  966.68 1033.12
 1059.45 1087.70 1108.73 1262.67 1280.22 1352.42 1377.40 1411.74 1420.67
 1436.55 1451.05 1480.77 1490.30 1498.98 1529.81


--------------------------------------------------------------------------------
  K point     98 =   0.187500  0.562500  0.187500  Weight =    0.004
--------------------------------------------------------------------------------

  Frequencies (cm-1) [NB: Negative implies an imaginary mode]:

  585.32  602.66  725.76  727.75  827.41  918.99  918.99  938.40  982.12
  982.12 1113.92 1113.92 1308.25 1308.25 1375.70 1375.70 1421.31 1421.31
 1429.51 1447.50 1472.29 1478.33 1492.38 1527.03


--------------------------------------------------------------------------------
  K point     99 =   0.187500  0.562500  0.312500  Weight =    0.004
--------------------------------------------------------------------------------

  Frequencies (cm-1) [NB: Negative implies an imaginary mode]:

  604.75  657.66  719.88  766.62  834.63  851.32  901.07  908.55  930.72
  995.20 1092.06 1113.85 1345.64 1356.97 1384.72 1412.04 1414.85 1427.72
 1432.71 1442.31 1452.09 1464.42 1478.54 1515.87


--------------------------------------------------------------------------------
  K point    100 =   0.187500  0.562500  0.437500  Weight =    0.004
--------------------------------------------------------------------------------

  Frequencies (cm-1) [NB: Negative implies an imaginary mode]:

  657.61  734.81  739.88  739.88  786.54  818.31  818.31  875.04  985.46
 1048.41 1048.41 1090.06 1373.58 1395.35 1395.35 1409.74 1426.02 1432.33
 1432.33 1444.09 1448.32 1459.50 1459.50 1493.24


--------------------------------------------------------------------------------
  K point    101 =   0.187500  0.562500  0.562500  Weight =    0.004
--------------------------------------------------------------------------------

  Frequencies (cm-1) [NB: Negative implies an imaginary mode]:

  657.61  734.81  739.88  739.88  786.54  818.31  818.31  875.04  985.46
 1048.41 1048.41 1090.06 1373.58 1395.35 1395.35 1409.74 1426.02 1432.33
 1432.33 1444.09 1448.32 1459.50 1459.50 1493.24


--------------------------------------------------------------------------------
  K point    102 =   0.187500  0.562500  0.687500  Weight =    0.004
--------------------------------------------------------------------------------

  Frequencies (cm-1) [NB: Negative implies an imaginary mode]:

  604.75  657.66  719.88  766.62  834.63  851.32  901.07  908.55  930.72
  995.20 1092.06 1113.85 1345.64 1356.97 1384.72 1412.04 1414.85 1427.72
 1432.71 1442.31 1452.09 1464.42 1478.54 1515.87


--------------------------------------------------------------------------------
  K point    103 =   0.187500  0.562500  0.812500  Weight =    0.004
--------------------------------------------------------------------------------

  Frequencies (cm-1) [NB: Negative implies an imaginary mode]:

  585.32  602.66  725.76  727.75  827.41  918.99  918.99  938.40  982.12
  982.12 1113.92 1113.92 1308.25 1308.25 1375.70 1375.70 1421.31 1421.31
 1429.51 1447.50 1472.29 1478.33 1492.38 1527.03


--------------------------------------------------------------------------------
  K point    104 =   0.187500  0.562500  0.937500  Weight =    0.004
--------------------------------------------------------------------------------

  Frequencies (cm-1) [NB: Negative implies an imaginary mode]:

  557.91  612.23  704.88  746.70  762.55  893.88  963.21  966.68 1033.12
 1059.45 1087.70 1108.73 1262.67 1280.22 1352.42 1377.40 1411.74 1420.67
 1436.55 1451.05 1480.77 1490.30 1498.98 1529.81


--------------------------------------------------------------------------------
  K point    105 =   0.187500  0.687500  0.062500  Weight =    0.004
--------------------------------------------------------------------------------

  Frequencies (cm-1) [NB: Negative implies an imaginary mode]:

  413.83  475.79  621.66  843.20  873.60  963.26  981.51 1009.80 1010.42
 1085.68 1088.89 1127.39 1258.63 1299.12 1318.50 1379.50 1380.72 1403.37
 1404.11 1415.65 1458.68 1513.97 1520.55 1550.54


--------------------------------------------------------------------------------
[...]
--------------------------------------------------------------------------------
  Zero point energy            =        1.700617 eV
  Entropy                      =        0.000001 eV/K
                               =        0.127944 J/(mol.K)
  Helmholtz free-energy        =      -57.256518 eV
                               =    -5524.378250 kJmol-1
  Free energy (equipartition)  =      -58.507180 eV
  - T*S       (equipartition)  =        0.305163 eV
  Uvib        (equipartition)  =        0.144771 eV
  Mean kinetic energy          =        0.850345 eV
  Heat capacity - const volume =        0.000004 eV/K
                               =        0.417292 J/(mol.K)
--------------------------------------------------------------------------------
  Phonon properties (per mole of unit cells): Temperature =     80.000 K
--------------------------------------------------------------------------------
  Zero point energy            =        1.700617 eV
  Entropy                      =        0.000002 eV/K
                               =        0.197019 J/(mol.K)
  Helmholtz free-energy        =      -57.256535 eV
                               =    -5524.379859 kJmol-1
  Free energy (equipartition)  =      -58.464997 eV
  - T*S       (equipartition)  =        0.326665 eV
  Uvib        (equipartition)  =        0.165453 eV
  Mean kinetic energy          =        0.850372 eV
  Heat capacity - const volume =        0.000007 eV/K
                               =        0.632638 J/(mol.K)
--------------------------------------------------------------------------------
  Phonon properties (per mole of unit cells): Temperature =     90.000 K
--------------------------------------------------------------------------------
  Zero point energy            =        1.700617 eV
  Entropy                      =        0.000003 eV/K
                               =        0.287253 J/(mol.K)
  Helmholtz free-energy        =      -57.256559 eV
                               =    -5524.382261 kJmol-1
  Free energy (equipartition)  =      -58.425406 eV
  - T*S       (equipartition)  =        0.345574 eV
  Uvib        (equipartition)  =        0.186134 eV
  Mean kinetic energy          =        0.850412 eV
  Heat capacity - const volume =        0.000010 eV/K
                               =        0.917959 J/(mol.K)
--------------------------------------------------------------------------------
  Phonon properties (per mole of unit cells): Temperature =    100.000 K
--------------------------------------------------------------------------------
  Zero point energy            =        1.700617 eV
  Entropy                      =        0.000004 eV/K
                               =        0.402280 J/(mol.K)
  Helmholtz free-energy        =      -57.256595 eV
                               =    -5524.385686 kJmol-1
  Free energy (equipartition)  =      -58.388117 eV
  - T*S       (equipartition)  =        0.362181 eV
  Uvib        (equipartition)  =        0.206816 eV
  Mean kinetic energy          =        0.850468 eV
  Heat capacity - const volume =        0.000013 eV/K
                               =        1.287207 J/(mol.K)
--------------------------------------------------------------------------------
  Phonon properties (per mole of unit cells): Temperature =    110.000 K
--------------------------------------------------------------------------------
  Zero point energy            =        1.700617 eV
  Entropy                      =        0.000006 eV/K
                               =        0.546060 J/(mol.K)
  Helmholtz free-energy        =      -57.256644 eV
                               =    -5524.390402 kJmol-1
  Free energy (equipartition)  =      -58.352900 eV
  - T*S       (equipartition)  =        0.376716 eV
  Uvib        (equipartition)  =        0.227498 eV
  Mean kinetic energy          =        0.850547 eV
  Heat capacity - const volume =        0.000018 eV/K
                               =        1.754908 J/(mol.K)
--------------------------------------------------------------------------------
  Phonon properties (per mole of unit cells): Temperature =    120.000 K
--------------------------------------------------------------------------------
  Zero point energy            =        1.700617 eV
  Entropy                      =        0.000007 eV/K
                               =        0.722769 J/(mol.K)
  Helmholtz free-energy        =      -57.256709 eV
                               =    -5524.396717 kJmol-1
  Free energy (equipartition)  =      -58.319566 eV
  - T*S       (equipartition)  =        0.389369 eV
  Uvib        (equipartition)  =        0.248179 eV
  Mean kinetic energy          =        0.850652 eV
  Heat capacity - const volume =        0.000024 eV/K
                               =        2.335104 J/(mol.K)
--------------------------------------------------------------------------------
  Phonon properties (per mole of unit cells): Temperature =    130.000 K
--------------------------------------------------------------------------------
  Zero point energy            =        1.700617 eV
  Entropy                      =        0.000010 eV/K
                               =        0.936654 J/(mol.K)
  Helmholtz free-energy        =      -57.256795 eV
                               =    -5524.404982 kJmol-1
  Free energy (equipartition)  =      -58.287958 eV
  - T*S       (equipartition)  =        0.400296 eV
  Uvib        (equipartition)  =        0.268861 eV
  Mean kinetic energy          =        0.850791 eV
  Heat capacity - const volume =        0.000032 eV/K
                               =        3.040349 J/(mol.K)
--------------------------------------------------------------------------------
  Phonon properties (per mole of unit cells): Temperature =    140.000 K
--------------------------------------------------------------------------------
  Zero point energy            =        1.700617 eV
  Entropy                      =        0.000012 eV/K
                               =        1.191869 J/(mol.K)
  Helmholtz free-energy        =      -57.256905 eV
                               =    -5524.415588 kJmol-1
  Free energy (equipartition)  =      -58.257941 eV
  - T*S       (equipartition)  =        0.409631 eV
  Uvib        (equipartition)  =        0.289542 eV
  Mean kinetic energy          =        0.850970 eV
  Heat capacity - const volume =        0.000040 eV/K
                               =        3.880981 J/(mol.K)
--------------------------------------------------------------------------------
  Phonon properties (per mole of unit cells): Temperature =    150.000 K
--------------------------------------------------------------------------------
  Zero point energy            =        1.700617 eV
  Entropy                      =        0.000015 eV/K
                               =        1.492335 J/(mol.K)
  Helmholtz free-energy        =      -57.257044 eV
                               =    -5524.428970 kJmol-1
  Free energy (equipartition)  =      -58.229404 eV
  - T*S       (equipartition)  =        0.417487 eV
  Uvib        (equipartition)  =        0.310224 eV
  Mean kinetic energy          =        0.851196 eV
  Heat capacity - const volume =        0.000050 eV/K
                               =        4.864740 J/(mol.K)
--------------------------------------------------------------------------------
  Phonon properties (per mole of unit cells): Temperature =    160.000 K
--------------------------------------------------------------------------------
  Zero point energy            =        1.700617 eV
  Entropy                      =        0.000019 eV/K
                               =        1.841626 J/(mol.K)
  Helmholtz free-energy        =      -57.257216 eV
                               =    -5524.445598 kJmol-1
  Free energy (equipartition)  =      -58.202246 eV
  - T*S       (equipartition)  =        0.423963 eV
  Uvib        (equipartition)  =        0.330906 eV
  Mean kinetic energy          =        0.851476 eV
  Heat capacity - const volume =        0.000062 eV/K
                               =        5.996667 J/(mol.K)
--------------------------------------------------------------------------------
  Phonon properties (per mole of unit cells): Temperature =    170.000 K
--------------------------------------------------------------------------------
  Zero point energy            =        1.700617 eV
  Entropy                      =        0.000023 eV/K
                               =        2.242893 J/(mol.K)
  Helmholtz free-energy        =      -57.257427 eV
                               =    -5524.465976 kJmol-1
  Free energy (equipartition)  =      -58.176381 eV
  - T*S       (equipartition)  =        0.429146 eV
  Uvib        (equipartition)  =        0.351587 eV
  Mean kinetic energy          =        0.851820 eV
  Heat capacity - const volume =        0.000075 eV/K
                               =        7.279214 J/(mol.K)
--------------------------------------------------------------------------------
  Phonon properties (per mole of unit cells): Temperature =    180.000 K
--------------------------------------------------------------------------------
  Zero point energy            =        1.700617 eV
  Entropy                      =        0.000028 eV/K
                               =        2.698818 J/(mol.K)
  Helmholtz free-energy        =      -57.257683 eV
                               =    -5524.490638 kJmol-1
  Free energy (equipartition)  =      -58.151734 eV
  - T*S       (equipartition)  =        0.433111 eV
  Uvib        (equipartition)  =        0.372269 eV
  Mean kinetic energy          =        0.852233 eV
  Heat capacity - const volume =        0.000090 eV/K
                               =        8.712454 J/(mol.K)
--------------------------------------------------------------------------------
  Phonon properties (per mole of unit cells): Temperature =    190.000 K
--------------------------------------------------------------------------------
  Zero point energy            =        1.700617 eV
  Entropy                      =        0.000033 eV/K
                               =        3.211592 J/(mol.K)
  Helmholtz free-energy        =      -57.257989 eV
                               =    -5524.520142 kJmol-1
  Free energy (equipartition)  =      -58.128237 eV
  - T*S       (equipartition)  =        0.435927 eV
  Uvib        (equipartition)  =        0.392951 eV
  Mean kinetic energy          =        0.852725 eV
  Heat capacity - const volume =        0.000107 eV/K
                               =       10.294343 J/(mol.K)
--------------------------------------------------------------------------------
  Phonon properties (per mole of unit cells): Temperature =    200.000 K
--------------------------------------------------------------------------------
  Zero point energy            =        1.700617 eV
  Entropy                      =        0.000039 eV/K
                               =        3.782919 J/(mol.K)
  Helmholtz free-energy        =      -57.258350 eV
                               =    -5524.555065 kJmol-1
  Free energy (equipartition)  =      -58.105828 eV
  - T*S       (equipartition)  =        0.437654 eV
  Uvib        (equipartition)  =        0.413632 eV
  Mean kinetic energy          =        0.853303 eV
  Heat capacity - const volume =        0.000125 eV/K
                               =       12.020986 J/(mol.K)
--------------------------------------------------------------------------------
  Phonon properties (per mole of unit cells): Temperature =    210.000 K
--------------------------------------------------------------------------------
  Zero point energy            =        1.700617 eV
  Entropy                      =        0.000046 eV/K
                               =        4.414020 J/(mol.K)
  Helmholtz free-energy        =      -57.258775 eV
                               =    -5524.595999 kJmol-1
  Free energy (equipartition)  =      -58.084454 eV
  - T*S       (equipartition)  =        0.438347 eV
  Uvib        (equipartition)  =        0.434314 eV
  Mean kinetic energy          =        0.853974 eV
  Heat capacity - const volume =        0.000144 eV/K
                               =       13.886902 J/(mol.K)
--------------------------------------------------------------------------------
  Phonon properties (per mole of unit cells): Temperature =    220.000 K
--------------------------------------------------------------------------------
  Zero point energy            =        1.700617 eV
  Entropy                      =        0.000053 eV/K
                               =        5.105662 J/(mol.K)
  Helmholtz free-energy        =      -57.259268 eV
                               =    -5524.643547 kJmol-1
  Free energy (equipartition)  =      -58.064065 eV
  - T*S       (equipartition)  =        0.438054 eV
  Uvib        (equipartition)  =        0.454995 eV
  Mean kinetic energy          =        0.854744 eV
  Heat capacity - const volume =        0.000165 eV/K
                               =       15.885266 J/(mol.K)
--------------------------------------------------------------------------------
  Phonon properties (per mole of unit cells): Temperature =    230.000 K
--------------------------------------------------------------------------------
  Zero point energy            =        1.700617 eV
  Entropy                      =        0.000061 eV/K
                               =        5.858178 J/(mol.K)
  Helmholtz free-energy        =      -57.259835 eV
                               =    -5524.698315 kJmol-1
  Free energy (equipartition)  =      -58.044617 eV
  - T*S       (equipartition)  =        0.436821 eV
  Uvib        (equipartition)  =        0.475677 eV
  Mean kinetic energy          =        0.855622 eV
  Heat capacity - const volume =        0.000187 eV/K
                               =       18.008145 J/(mol.K)
--------------------------------------------------------------------------------
  Phonon properties (per mole of unit cells): Temperature =    240.000 K
--------------------------------------------------------------------------------
  Zero point energy            =        1.700617 eV
  Entropy                      =        0.000069 eV/K
                               =        6.671502 J/(mol.K)
  Helmholtz free-energy        =      -57.260484 eV
                               =    -5524.760913 kJmol-1
  Free energy (equipartition)  =      -58.026068 eV
  - T*S       (equipartition)  =        0.434689 eV
  Uvib        (equipartition)  =        0.496359 eV
  Mean kinetic energy          =        0.856613 eV
  Heat capacity - const volume =        0.000210 eV/K
                               =       20.246717 J/(mol.K)
--------------------------------------------------------------------------------
  Phonon properties (per mole of unit cells): Temperature =    250.000 K
--------------------------------------------------------------------------------
  Zero point energy            =        1.700617 eV
  Entropy                      =        0.000078 eV/K
                               =        7.545203 J/(mol.K)
  Helmholtz free-energy        =      -57.261220 eV
                               =    -5524.831947 kJmol-1
  Free energy (equipartition)  =      -58.008381 eV
  - T*S       (equipartition)  =        0.431694 eV
  Uvib        (equipartition)  =        0.517040 eV
  Mean kinetic energy          =        0.857722 eV
  Heat capacity - const volume =        0.000234 eV/K
                               =       22.591484 J/(mol.K)
--------------------------------------------------------------------------------
  Phonon properties (per mole of unit cells): Temperature =    260.000 K
--------------------------------------------------------------------------------
  Zero point energy            =        1.700617 eV
  Entropy                      =        0.000088 eV/K
                               =        8.478515 J/(mol.K)
  Helmholtz free-energy        =      -57.262050 eV
                               =    -5524.912016 kJmol-1
  Free energy (equipartition)  =      -57.991521 eV
  - T*S       (equipartition)  =        0.427872 eV
  Uvib        (equipartition)  =        0.537722 eV
  Mean kinetic energy          =        0.858956 eV
  Heat capacity - const volume =        0.000259 eV/K
                               =       25.032466 J/(mol.K)
--------------------------------------------------------------------------------
  Phonon properties (per mole of unit cells): Temperature =    270.000 K
--------------------------------------------------------------------------------
  Zero point energy            =        1.700617 eV
  Entropy                      =        0.000098 eV/K
                               =        9.470378 J/(mol.K)
  Helmholtz free-energy        =      -57.262980 eV
                               =    -5525.001712 kJmol-1
  Free energy (equipartition)  =      -57.975457 eV
  - T*S       (equipartition)  =        0.423254 eV
  Uvib        (equipartition)  =        0.558403 eV
  Mean kinetic energy          =        0.860318 eV
  Heat capacity - const volume =        0.000286 eV/K
                               =       27.559388 J/(mol.K)
--------------------------------------------------------------------------------
  Phonon properties (per mole of unit cells): Temperature =    280.000 K
--------------------------------------------------------------------------------
  Zero point energy            =        1.700617 eV
  Entropy                      =        0.000109 eV/K
                               =       10.519470 J/(mol.K)
  Helmholtz free-energy        =      -57.264015 eV
                               =    -5525.101614 kJmol-1
  Free energy (equipartition)  =      -57.960159 eV
  - T*S       (equipartition)  =        0.417870 eV
  Uvib        (equipartition)  =        0.579085 eV
  Mean kinetic energy          =        0.861814 eV
  Heat capacity - const volume =        0.000313 eV/K
                               =       30.161849 J/(mol.K)
--------------------------------------------------------------------------------
  Phonon properties (per mole of unit cells): Temperature =    290.000 K
--------------------------------------------------------------------------------
  Zero point energy            =        1.700617 eV
  Entropy                      =        0.000120 eV/K
                               =       11.624246 J/(mol.K)
  Helmholtz free-energy        =      -57.265162 eV
                               =    -5525.212287 kJmol-1
  Free energy (equipartition)  =      -57.945600 eV
  - T*S       (equipartition)  =        0.411748 eV
  Uvib        (equipartition)  =        0.599767 eV
  Mean kinetic energy          =        0.863446 eV
  Heat capacity - const volume =        0.000340 eV/K
                               =       32.829473 J/(mol.K)
--------------------------------------------------------------------------------

  Time to end of properties =       1.2783 seconds


  Peak dynamic memory used =       0.67 MB 


  Timing analysis for GULP :

--------------------------------------------------------------------------------
  Task / Subroutine                                          Time (Seconds)
--------------------------------------------------------------------------------
  Calculation of real space energy and derivatives                0.0005
  Calculation of Brenner energy and derivatives                   1.2395
  Calculation of phonons                                          1.2671
  Disk read/write operations to scratch files                     0.0053
--------------------------------------------------------------------------------
  Total CPU time                                                  1.2783
--------------------------------------------------------------------------------


  Job Finished at 18:10.58 14th August     2020                               

