********************************************************************************
*                       GENERAL UTILITY LATTICE PROGRAM                        *
*                                 Julian Gale                                  *
*                       Curtin Institute for Computation                       *
*                    School of Molecular and Life Sciences                     *
*                    Curtin University, Western Australia                      *
********************************************************************************
* Version = 5.2.0 * Last modified =  17th December 2019                        *
********************************************************************************
*  optimise     - perform optimisation run                                     *
*  conv         - constant volume calculation                                  *
*  isotropic    - only isotropic cell expansion to be allowed                  *
*  lbfgs        - use limited memory BFGS update                               *
********************************************************************************
* ASE calculation                                                              *
********************************************************************************


  Job Started  at 14:12.56 31st July       2020                               

  Number of CPUs =     1


  Total number of configurations input =      1

********************************************************************************
*  Input for Configuration =   1                                               *
********************************************************************************

  Formula = C64                                                         

  Number of irreducible atoms/shells =      64


  Total number atoms/shells =      64

  Dimensionality = 3               :  Bulk   



  Cartesian lattice vectors (Angstroms) :

        7.537049    0.000000    0.000000
        0.000000    7.537049    0.000000
        0.000000    0.000000    7.537049

  Cell parameters (Angstroms/Degrees):

  a =       7.5370    alpha =  90.0000
  b =       7.5370    beta  =  90.0000
  c =       7.5370    gamma =  90.0000

  Initial cell volume =         428.157954 Angs**3

  Temperature of configuration =   0.00     K 

  Pressure of configuration =         0.000 GPa 

  Fractional coordinates of asymmetric unit :

--------------------------------------------------------------------------------
   No.  Atomic       x           y          z         Charge      Occupancy
        Label      (Frac)      (Frac)     (Frac)        (e)         (Frac)  
--------------------------------------------------------------------------------
      1 C     c    0.035780    0.526170    0.339890     0.00000    1.000000    
      2 C     c    0.229590 *  0.062470 *  0.070680 *   0.00000    1.000000    
      3 C     c    0.086740 *  0.372580 *  0.241540 *   0.00000    1.000000    
      4 C     c    0.849890 *  0.908360 *  0.422460 *   0.00000    1.000000    
      5 C     c    0.441280 *  0.873720 *  0.947590 *   0.00000    1.000000    
      6 C     c    0.787440 *  0.429530 *  0.218620 *   0.00000    1.000000    
      7 C     c    0.901960 *  0.595110 *  0.684440 *   0.00000    1.000000    
      8 C     c    0.792250 *  0.510990 *  0.553950 *   0.00000    1.000000    
      9 C     c    0.109330 *  0.341370 *  0.597450 *   0.00000    1.000000    
     10 C     c    0.368560 *  0.720100 *  0.087270 *   0.00000    1.000000    
     11 C     c    0.859240 *  0.209770 *  0.708270 *   0.00000    1.000000    
     12 C     c    0.544100 *  0.861310 *  0.508880 *   0.00000    1.000000    
     13 C     c    0.399810 *  0.199970 *  0.585870 *   0.00000    1.000000    
     14 C     c    0.169580 *  0.946440 *  0.765170 *   0.00000    1.000000    
     15 C     c    0.498500 *  0.562480 *  0.365890 *   0.00000    1.000000    
     16 C     c    0.950810 *  0.898420 *  0.079280 *   0.00000    1.000000    
     17 C     c    0.116990 *  0.779030 *  0.831300 *   0.00000    1.000000    
     18 C     c    0.273570 *  0.686230 *  0.563680 *   0.00000    1.000000    
     19 C     c    0.707320 *  0.344640 *  0.642410 *   0.00000    1.000000    
     20 C     c    0.019610 *  0.197340 *  0.239350 *   0.00000    1.000000    
     21 C     c    0.914960 *  0.113770 *  0.392490 *   0.00000    1.000000    
     22 C     c    0.837630 *  0.564860 *  0.366020 *   0.00000    1.000000    
     23 C     c    0.432980 *  0.789650 *  0.634100 *   0.00000    1.000000    
     24 C     c    0.769260 *  0.240060 *  0.292990 *   0.00000    1.000000    
     25 C     c    0.643930 *  0.119910 *  0.979490 *   0.00000    1.000000    
     26 C     c    0.485730 *  0.554490 *  0.047940 *   0.00000    1.000000    
     27 C     c    0.577200 *  0.241410 *  0.526410 *   0.00000    1.000000    
     28 C     c    0.601420 *  0.945080 *  0.073870 *   0.00000    1.000000    
     29 C     c    0.456300 *  0.873520 *  0.209870 *   0.00000    1.000000    
     30 C     c    0.305050 *  0.022220 *  0.885080 *   0.00000    1.000000    
     31 C     c    0.783880 *  0.070020 *  0.850190 *   0.00000    1.000000    
     32 C     c    0.845150 *  0.726130 *  0.803670 *   0.00000    1.000000    
     33 C     c    0.277250 *  0.359650 *  0.526010 *   0.00000    1.000000    
     34 C     c    0.192240 *  0.651360 *  0.147020 *   0.00000    1.000000    
     35 C     c    0.059800 *  0.466190 *  0.745160 *   0.00000    1.000000    
     36 C     c    0.299400 *  0.059080 *  0.468830 *   0.00000    1.000000    
     37 C     c    0.158120 *  0.690640 *  0.365300 *   0.00000    1.000000    
     38 C     c    0.510810 *  0.270950 *  0.909310 *   0.00000    1.000000    
     39 C     c    0.030260 *  0.084690 *  0.074760 *   0.00000    1.000000    
     40 C     c    0.731350 *  0.898160 *  0.760240 *   0.00000    1.000000    
     41 C     c    0.354530 *  0.518850 *  0.467700 *   0.00000    1.000000    
     42 C     c    0.050530 *  0.856680 *  0.457030 *   0.00000    1.000000    
     43 C     c    0.032710 *  0.391020 *  0.935900 *   0.00000    1.000000    
     44 C     c    0.198350 *  0.432400 *  0.080030 *   0.00000    1.000000    
     45 C     c    0.156630 *  0.641120 *  0.718440 *   0.00000    1.000000    
     46 C     c    0.878180 *  0.482020 *  0.050850 *   0.00000    1.000000    
     47 C     c    0.770670 *  0.816050 *  0.111880 *   0.00000    1.000000    
     48 C     c    0.956570 *  0.195360 *  0.913820 *   0.00000    1.000000    
     49 C     c    0.760580 *  0.757830 *  0.309070 *   0.00000    1.000000    
     50 C     c    0.784460 *  0.652370 *  0.979350 *   0.00000    1.000000    
     51 C     c    0.134860 *  0.001610 *  0.567360 *   0.00000    1.000000    
     52 C     c    0.449340 *  0.221950 *  0.230520 *   0.00000    1.000000    
     53 C     c    0.398790 *  0.353120 *  0.068820 *   0.00000    1.000000    
     54 C     c    0.340680 *  0.047910 *  0.256940 *   0.00000    1.000000    
     55 C     c    0.598360 *  0.221420 *  0.346800 *   0.00000    1.000000    
     56 C     c    0.391290 *  0.170980 *  0.786620 *   0.00000    1.000000    
     57 C     c    0.608190 *  0.415170 *  0.804460 *   0.00000    1.000000    
     58 C     c    0.706980 *  0.925380 *  0.564050 *   0.00000    1.000000    
     59 C     c    0.070550 *  0.762920 *  0.012520 *   0.00000    1.000000    
     60 C     c    0.578950 *  0.471410 *  0.218930 *   0.00000    1.000000    
     61 C     c    0.558470 *  0.760510 *  0.348430 *   0.00000    1.000000    
     62 C     c    0.998680 *  0.176400 *  0.572620 *   0.00000    1.000000    
     63 C     c    0.602800 *  0.596610 *  0.896230 *   0.00000    1.000000    
     64 C     c    0.545760 *  0.785700 *  0.804830 *   0.00000    1.000000    
--------------------------------------------------------------------------------


  Constraints : 

--------------------------------------------------------------------------------
  Constraint no.      Unconstrained     Constrained    Coefficient    Offset
                         Variable         Variable
--------------------------------------------------------------------------------
           1              Strain 1        Strain 2       1.00000      0.0000
           2              Strain 1        Strain 3       1.00000      0.0000
--------------------------------------------------------------------------------


********************************************************************************
*  General input information                                                   *
********************************************************************************

  Species output for all configurations : 

--------------------------------------------------------------------------------
  Species    Type    Atomic    Atomic    Charge       Radii (Angs)     Library
                     Number     Mass       (e)     Cova   Ionic  VDW   Symbol
--------------------------------------------------------------------------------
    C        Core        6      12.01   0.000000   0.770  0.000  1.530          
--------------------------------------------------------------------------------


  Lattice summation method               =    Ewald          (3-D)
                                         =    Parry          (2-D)
                                         =    Saunders et al (1-D)
  Accuracy factor for lattice sums       =   12.000


  Analytic derivatives to be used

  Time limit = Infinity

  Maximum range for interatomic potentials =    100000.000000 Angstroms

  Brenner et al 2002 potential to be used with explicit splines for P


********************************************************************************
*  Output for configuration   1                                                *
********************************************************************************


  Components of energy : 

--------------------------------------------------------------------------------
  Interatomic potentials     =           0.00000000 eV    
  Brenner potentials         =        -422.04767647 eV    
  Monopole - monopole (real) =           0.00000000 eV    
  Monopole - monopole (recip)=           0.00000000 eV    
  Monopole - monopole (total)=           0.00000000 eV    
--------------------------------------------------------------------------------
  Total lattice energy       =        -422.04767647 eV    
--------------------------------------------------------------------------------
  Total lattice energy       =          -40721.1492 kJ/(mole unit cells)
--------------------------------------------------------------------------------


  Number of variables =      189

  Maximum number of calculations  =          2000
  Maximum Hessian update interval =            10
  Maximum step size               =   1.000000000
  Maximum parameter tolerance     =   0.000010000
  Maximum function  tolerance     =   0.000010000
  Maximum gradient  tolerance     =   0.001000000
  Maximum gradient  component     =   0.010000000

  Maximum LM gradient tolerance   =   0.900000000
  Symmetry not applied to optimisation

  Limited Memory BFGS to be used of order   10

  BFGS hessian update to be used

  Lower half triangular hessian to be used

  Start of bulk optimisation :

  Cycle:      0 Energy:      -422.047676  Gnorm:      0.489479  CPU:    0.106
  Cycle:      1 Energy:      -422.193823  Gnorm:      0.417039  CPU:    0.205
  Cycle:      2 Energy:      -422.708810  Gnorm:      0.277040  CPU:    0.218
  Cycle:      3 Energy:      -422.874578  Gnorm:      0.164330  CPU:    0.227
  Cycle:      4 Energy:      -422.945609  Gnorm:      0.125024  CPU:    0.233
  Cycle:      5 Energy:      -423.038537  Gnorm:      0.107014  CPU:    0.257
  Cycle:      6 Energy:      -423.078428  Gnorm:      0.142704  CPU:    0.265
  Cycle:      7 Energy:      -423.114772  Gnorm:      0.070987  CPU:    0.276
  Cycle:      8 Energy:      -423.136388  Gnorm:      0.062421  CPU:    0.298
  Cycle:      9 Energy:      -423.158578  Gnorm:      0.063275  CPU:    0.305
  Cycle:     10 Energy:      -423.182650  Gnorm:      0.084085  CPU:    0.318
  Cycle:     11 Energy:      -423.201460  Gnorm:      0.043601  CPU:    0.338
  Cycle:     12 Energy:      -423.211861  Gnorm:      0.037466  CPU:    0.346
  Cycle:     13 Energy:      -423.226155  Gnorm:      0.037953  CPU:    0.361
  Cycle:     14 Energy:      -423.231436  Gnorm:      0.077770  CPU:    0.379
  Cycle:     15 Energy:      -423.240982  Gnorm:      0.029393  CPU:    0.386
  Cycle:     16 Energy:      -423.246008  Gnorm:      0.022798  CPU:    0.403
  Cycle:     17 Energy:      -423.251202  Gnorm:      0.026739  CPU:    0.419
  Cycle:     18 Energy:      -423.256898  Gnorm:      0.032402  CPU:    0.426
  Cycle:     19 Energy:      -423.259084  Gnorm:      0.024207  CPU:    0.455
  Cycle:     20 Energy:      -423.260548  Gnorm:      0.013054  CPU:    0.465
  Cycle:     21 Energy:      -423.261623  Gnorm:      0.013215  CPU:    0.489
  Cycle:     22 Energy:      -423.262574  Gnorm:      0.021985  CPU:    0.496
  Cycle:     23 Energy:      -423.263651  Gnorm:      0.017644  CPU:    0.515
  Cycle:     24 Energy:      -423.264765  Gnorm:      0.010957  CPU:    0.530
  Cycle:     25 Energy:      -423.265441  Gnorm:      0.011275  CPU:    0.537
  Cycle:     26 Energy:      -423.266259  Gnorm:      0.023020  CPU:    0.558
  Cycle:     27 Energy:      -423.267133  Gnorm:      0.011363  CPU:    0.573
  Cycle:     28 Energy:      -423.267777  Gnorm:      0.011184  CPU:    0.609
  Cycle:     29 Energy:      -423.268628  Gnorm:      0.013915  CPU:    0.621
  Cycle:     30 Energy:      -423.269914  Gnorm:      0.014848  CPU:    0.628
  Cycle:     31 Energy:      -423.270517  Gnorm:      0.019290  CPU:    0.658
  Cycle:     32 Energy:      -423.271847  Gnorm:      0.012273  CPU:    0.665
  Cycle:     33 Energy:      -423.273326  Gnorm:      0.011991  CPU:    0.688
  Cycle:     34 Energy:      -423.274278  Gnorm:      0.015653  CPU:    0.700
  Cycle:     35 Energy:      -423.275813  Gnorm:      0.017918  CPU:    0.707
  Cycle:     36 Energy:      -423.276561  Gnorm:      0.037741  CPU:    0.730
  Cycle:     37 Energy:      -423.278291  Gnorm:      0.012306  CPU:    0.741
  Cycle:     38 Energy:      -423.278942  Gnorm:      0.011741  CPU:    0.748
  Cycle:     39 Energy:      -423.280046  Gnorm:      0.014275  CPU:    0.772
  Cycle:     40 Energy:      -423.280384  Gnorm:      0.037781  CPU:    0.782
  Cycle:     41 Energy:      -423.281776  Gnorm:      0.012191  CPU:    0.788
  Cycle:     42 Energy:      -423.282226  Gnorm:      0.008738  CPU:    0.818
  Cycle:     43 Energy:      -423.282717  Gnorm:      0.010894  CPU:    0.839
  Cycle:     44 Energy:      -423.283433  Gnorm:      0.011835  CPU:    0.846
  Cycle:     45 Energy:      -423.283788  Gnorm:      0.017394  CPU:    0.875
  Cycle:     46 Energy:      -423.284461  Gnorm:      0.008266  CPU:    0.884
  Cycle:     47 Energy:      -423.284821  Gnorm:      0.006089  CPU:    0.893
  Cycle:     48 Energy:      -423.285266  Gnorm:      0.007220  CPU:    0.917
  Cycle:     49 Energy:      -423.285479  Gnorm:      0.013067  CPU:    0.925
  Cycle:     50 Energy:      -423.285778  Gnorm:      0.006431  CPU:    0.937
  Cycle:     51 Energy:      -423.285942  Gnorm:      0.004781  CPU:    0.958
  Cycle:     52 Energy:      -423.286102  Gnorm:      0.005632  CPU:    0.965
  Cycle:     53 Energy:      -423.286195  Gnorm:      0.014653  CPU:    0.981
  Cycle:     54 Energy:      -423.286430  Gnorm:      0.005509  CPU:    0.999
  Cycle:     55 Energy:      -423.286531  Gnorm:      0.003251  CPU:    1.006
  Cycle:     56 Energy:      -423.286613  Gnorm:      0.003775  CPU:    1.026
  Cycle:     57 Energy:      -423.286712  Gnorm:      0.007354  CPU:    1.040
  Cycle:     58 Energy:      -423.286818  Gnorm:      0.003825  CPU:    1.047
  Cycle:     59 Energy:      -423.286878  Gnorm:      0.002955  CPU:    1.069
  Cycle:     60 Energy:      -423.286951  Gnorm:      0.003950  CPU:    1.097
  Cycle:     61 Energy:      -423.286983  Gnorm:      0.009521  CPU:    1.108
  Cycle:     62 Energy:      -423.287072  Gnorm:      0.004223  CPU:    1.114
  Cycle:     63 Energy:      -423.287138  Gnorm:      0.002938  CPU:    1.140
  Cycle:     64 Energy:      -423.287191  Gnorm:      0.003679  CPU:    1.149
  Cycle:     65 Energy:      -423.287309  Gnorm:      0.004392  CPU:    1.155
  Cycle:     66 Energy:      -423.287428  Gnorm:      0.011136  CPU:    1.181
  Cycle:     67 Energy:      -423.287617  Gnorm:      0.004094  CPU:    1.189
  Cycle:     68 Energy:      -423.287718  Gnorm:      0.003589  CPU:    1.200
  Cycle:     69 Energy:      -423.287878  Gnorm:      0.004352  CPU:    1.223
  Cycle:     70 Energy:      -423.288062  Gnorm:      0.006979  CPU:    1.249
  Cycle:     71 Energy:      -423.288122  Gnorm:      0.012605  CPU:    1.258
  Cycle:     72 Energy:      -423.288330  Gnorm:      0.003861  CPU:    1.265
  Cycle:     73 Energy:      -423.288393  Gnorm:      0.003685  CPU:    1.291
  Cycle:     74 Energy:      -423.288502  Gnorm:      0.004586  CPU:    1.299
  Cycle:     75 Energy:      -423.288636  Gnorm:      0.013137  CPU:    1.309
  Cycle:     76 Energy:      -423.288834  Gnorm:      0.006430  CPU:    1.332
  Cycle:     77 Energy:      -423.288968  Gnorm:      0.003888  CPU:    1.340
  Cycle:     78 Energy:      -423.289068  Gnorm:      0.004689  CPU:    1.354
  Cycle:     79 Energy:      -423.289200  Gnorm:      0.005367  CPU:    1.373
  Cycle:     80 Energy:      -423.289287  Gnorm:      0.008315  CPU:    1.383
  Cycle:     81 Energy:      -423.289426  Gnorm:      0.004436  CPU:    1.408
  Cycle:     82 Energy:      -423.289519  Gnorm:      0.003098  CPU:    1.418
  Cycle:     83 Energy:      -423.289605  Gnorm:      0.003467  CPU:    1.444
  Cycle:     84 Energy:      -423.289703  Gnorm:      0.003393  CPU:    1.453
  Cycle:     85 Energy:      -423.289728  Gnorm:      0.004264  CPU:    1.477
  Cycle:     86 Energy:      -423.289780  Gnorm:      0.002239  CPU:    1.490
  Cycle:     87 Energy:      -423.289812  Gnorm:      0.001739  CPU:    1.497
  Cycle:     88 Energy:      -423.289846  Gnorm:      0.004225  CPU:    1.520
  Cycle:     89 Energy:      -423.289866  Gnorm:      0.002526  CPU:    1.531
  Cycle:     90 Energy:      -423.289881  Gnorm:      0.001502  CPU:    1.538
  Cycle:     91 Energy:      -423.289902  Gnorm:      0.001376  CPU:    1.562
  Cycle:     92 Energy:      -423.289926  Gnorm:      0.001783  CPU:    1.586
  Cycle:     93 Energy:      -423.289952  Gnorm:      0.003195  CPU:    1.611
  Cycle:     94 Energy:      -423.289972  Gnorm:      0.001608  CPU:    1.619
  Cycle:     95 Energy:      -423.289981  Gnorm:      0.001311  CPU:    1.645
  Cycle:     96 Energy:      -423.289992  Gnorm:      0.003083  CPU:    1.653
  Cycle:     97 Energy:      -423.290005  Gnorm:      0.001798  CPU:    1.661
  Cycle:     98 Energy:      -423.290021  Gnorm:      0.001577  CPU:    1.686
  Cycle:     99 Energy:      -423.290035  Gnorm:      0.001910  CPU:    1.694
  Cycle:    100 Energy:      -423.290060  Gnorm:      0.002633  CPU:    1.705
  Cycle:    101 Energy:      -423.290087  Gnorm:      0.002717  CPU:    1.727
  Cycle:    102 Energy:      -423.290111  Gnorm:      0.002297  CPU:    1.735
  Cycle:    103 Energy:      -423.290130  Gnorm:      0.001714  CPU:    1.749
  Cycle:    104 Energy:      -423.290156  Gnorm:      0.001454  CPU:    1.768
  Cycle:    105 Energy:      -423.290184  Gnorm:      0.002100  CPU:    1.775
  Cycle:    106 Energy:      -423.290196  Gnorm:      0.002230  CPU:    1.793
  Cycle:    107 Energy:      -423.290209  Gnorm:      0.001026  CPU:    1.809
  Cycle:    108 Energy:      -423.290216  Gnorm:      0.000985  CPU:    1.816
  Cycle:    109 Energy:      -423.290224  Gnorm:      0.001110  CPU:    1.837
  Cycle:    110 Energy:      -423.290230  Gnorm:      0.001661  CPU:    1.854
  Cycle:    111 Energy:      -423.290236  Gnorm:      0.000722  CPU:    1.862
  Cycle:    112 Energy:      -423.290239  Gnorm:      0.000641  CPU:    1.886
  Cycle:    113 Energy:      -423.290244  Gnorm:      0.000703  CPU:    1.894
  Cycle:    114 Energy:      -423.290250  Gnorm:      0.001188  CPU:    1.906
  Cycle:    115 Energy:      -423.290251  Gnorm:      0.001185  CPU:    1.927
  Cycle:    116 Energy:      -423.290253  Gnorm:      0.000386  CPU:    1.935
  Cycle:    117 Energy:      -423.290253  Gnorm:      0.000345  CPU:    1.950
  Cycle:    118 Energy:      -423.290253  Gnorm:      0.000344  CPU:    1.972
  Cycle:    119 Energy:      -423.290253  Gnorm:      0.000330  CPU:    1.995
  Cycle:    120 Energy:      -423.290254  Gnorm:      0.000339  CPU:    2.009
  Cycle:    121 Energy:      -423.290254  Gnorm:      0.000443  CPU:    2.036
  Cycle:    122 Energy:      -423.290254  Gnorm:      0.000263  CPU:    2.044
  Cycle:    123 Energy:      -423.290255  Gnorm:      0.000177  CPU:    2.057
  Cycle:    124 Energy:      -423.290255  Gnorm:      0.000165  CPU:    2.078


  **** Optimisation achieved ****


  Final energy =    -423.29025537 eV
  Final Gnorm  =       0.00016025

  Components of energy : 

--------------------------------------------------------------------------------
  Interatomic potentials     =           0.00000000 eV    
  Brenner potentials         =        -423.29025537 eV    
  Monopole - monopole (real) =           0.00000000 eV    
  Monopole - monopole (recip)=           0.00000000 eV    
  Monopole - monopole (total)=           0.00000000 eV    
--------------------------------------------------------------------------------
  Total lattice energy       =        -423.29025537 eV    
--------------------------------------------------------------------------------
  Total lattice energy       =          -40841.0391 kJ/(mole unit cells)
--------------------------------------------------------------------------------

  Final fractional coordinates of atoms :

--------------------------------------------------------------------------------
   No.  Atomic        x           y          z          Radius
        Label       (Frac)      (Frac)     (Frac)       (Angs) 
--------------------------------------------------------------------------------
     1  C     c     0.035780    0.526170    0.339890    0.000000
     2  C     c     0.239800    0.058466    0.073501    0.000000
     3  C     c     0.088023    0.374347    0.242863    0.000000
     4  C     c     0.859474    0.908837    0.417464    0.000000
     5  C     c     0.446747    0.862987    0.951593    0.000000
     6  C     c     0.783891    0.426529    0.215954    0.000000
     7  C     c     0.905390    0.584806    0.684994    0.000000
     8  C     c     0.794719    0.500514    0.554515    0.000000
     9  C     c     0.114771    0.328878    0.608711    0.000000
    10  C     c     0.370432    0.710769    0.090319    0.000000
    11  C     c     0.867630    0.205539    0.713509    0.000000
    12  C     c     0.548549    0.854622    0.513878    0.000000
    13  C     c     0.404222    0.189510    0.591432    0.000000
    14  C     c     0.174005    0.931572    0.772038    0.000000
    15  C     c     0.502151    0.559104    0.367995    0.000000
    16  C     c     0.958609    0.896560    0.084859    0.000000
    17  C     c     0.122899    0.766394    0.841012    0.000000
    18  C     c     0.279799    0.669437    0.571129    0.000000
    19  C     c     0.716085    0.331573    0.644351    0.000000
    20  C     c     0.027828    0.197998    0.240276    0.000000
    21  C     c     0.914657    0.116443    0.391091    0.000000
    22  C     c     0.835608    0.562175    0.365540    0.000000
    23  C     c     0.439590    0.777123    0.640913    0.000000
    24  C     c     0.773826    0.240170    0.287594    0.000000
    25  C     c     0.648227    0.111699    0.983550    0.000000
    26  C     c     0.483392    0.548004    0.048720    0.000000
    27  C     c     0.584287    0.229025    0.527309    0.000000
    28  C     c     0.607726    0.937195    0.078438    0.000000
    29  C     c     0.458986    0.863193    0.214651    0.000000
    30  C     c     0.315052    0.007705    0.889174    0.000000
    31  C     c     0.791816    0.061579    0.851567    0.000000
    32  C     c     0.847357    0.718583    0.800756    0.000000
    33  C     c     0.290083    0.348386    0.543609    0.000000
    34  C     c     0.189766    0.642987    0.158424    0.000000
    35  C     c     0.057543    0.457699    0.750122    0.000000
    36  C     c     0.306789    0.046283    0.477036    0.000000
    37  C     c     0.160875    0.687864    0.379141    0.000000
    38  C     c     0.519257    0.259676    0.914970    0.000000
    39  C     c     0.039426    0.083195    0.075656    0.000000
    40  C     c     0.741673    0.889570    0.761042    0.000000
    41  C     c     0.365440    0.506181    0.481117    0.000000
    42  C     c     0.050955    0.847773    0.462597    0.000000
    43  C     c     0.030470    0.387479    0.940431    0.000000
    44  C     c     0.201848    0.430962    0.078893    0.000000
    45  C     c     0.162803    0.628736    0.728812    0.000000
    46  C     c     0.877690    0.483552    0.048171    0.000000
    47  C     c     0.775102    0.812389    0.112854    0.000000
    48  C     c     0.966895    0.188229    0.916829    0.000000
    49  C     c     0.763222    0.753897    0.309519    0.000000
    50  C     c     0.788307    0.649822    0.981341    0.000000
    51  C     c     0.138271    0.989669    0.578521    0.000000
    52  C     c     0.447922    0.211931    0.232656    0.000000
    53  C     c     0.402143    0.340780    0.071773    0.000000
    54  C     c     0.342382    0.031249    0.262552    0.000000
    55  C     c     0.599978    0.215796    0.345213    0.000000
    56  C     c     0.402025    0.155145    0.790802    0.000000
    57  C     c     0.616950    0.403151    0.809178    0.000000
    58  C     c     0.715678    0.917211    0.566023    0.000000
    59  C     c     0.079915    0.760637    0.024945    0.000000
    60  C     c     0.579308    0.473196    0.216089    0.000000
    61  C     c     0.558860    0.756174    0.350273    0.000000
    62  C     c     0.006997    0.157788    0.572015    0.000000
    63  C     c     0.605957    0.588064    0.893724    0.000000
    64  C     c     0.553012    0.772596    0.808082    0.000000
--------------------------------------------------------------------------------

  Final internal derivatives :

--------------------------------------------------------------------------------
   No.  Atomic          a             b             c           Radius
        Label          (eV)          (eV)          (eV)        (eV/Angs)
--------------------------------------------------------------------------------
      1 C     c       0.000000      0.000000      0.000000      0.000000
      2 C     c       0.000583     -0.000638      0.000931      0.000000
      3 C     c       0.001966     -0.000403      0.002277      0.000000
      4 C     c      -0.000235      0.001027      0.002123      0.000000
      5 C     c      -0.001272     -0.000146      0.001784      0.000000
      6 C     c      -0.002502     -0.000481      0.000508      0.000000
      7 C     c      -0.007279     -0.002690      0.000484      0.000000
      8 C     c       0.002474     -0.002892      0.001997      0.000000
      9 C     c      -0.000796     -0.001168      0.001655      0.000000
     10 C     c      -0.000514     -0.001626      0.002114      0.000000
     11 C     c      -0.001890      0.003156     -0.006788      0.000000
     12 C     c      -0.000678      0.001347     -0.000253      0.000000
     13 C     c       0.001042     -0.001261      0.000457      0.000000
     14 C     c       0.000502     -0.000920      0.000751      0.000000
     15 C     c      -0.001529      0.001304      0.001056      0.000000
     16 C     c       0.001382     -0.001143      0.001690      0.000000
     17 C     c      -0.002000     -0.000287      0.001157      0.000000
     18 C     c      -0.001665      0.001016      0.004416      0.000000
     19 C     c      -0.001127      0.001071     -0.001258      0.000000
     20 C     c      -0.001231      0.000810      0.002117      0.000000
     21 C     c       0.000628     -0.001010      0.001015      0.000000
     22 C     c      -0.002711     -0.000327      0.001566      0.000000
     23 C     c       0.000972     -0.000315      0.001121      0.000000
     24 C     c       0.001232     -0.000092     -0.000036      0.000000
     25 C     c       0.000005      0.000563      0.000682      0.000000
     26 C     c       0.000766      0.000085      0.003158      0.000000
     27 C     c       0.000447      0.000728     -0.000167      0.000000
     28 C     c       0.001102     -0.001909      0.000564      0.000000
     29 C     c       0.000116     -0.000873     -0.001454      0.000000
     30 C     c      -0.000125     -0.001128      0.001461      0.000000
     31 C     c      -0.004847     -0.001278      0.000492      0.000000
     32 C     c      -0.003435     -0.001738     -0.000073      0.000000
     33 C     c       0.000095     -0.000446      0.001257      0.000000
     34 C     c      -0.005273     -0.009690      0.004522      0.000000
     35 C     c      -0.002541     -0.001805      0.002331      0.000000
     36 C     c      -0.000507     -0.000333      0.000093      0.000000
     37 C     c      -0.004918     -0.000331     -0.008726      0.000000
     38 C     c       0.000454     -0.002505     -0.001096      0.000000
     39 C     c       0.000383      0.001433      0.000134      0.000000
     40 C     c       0.000547      0.001143      0.001283      0.000000
     41 C     c      -0.000683      0.000919      0.001629      0.000000
     42 C     c      -0.000288      0.002128      0.000874      0.000000
     43 C     c      -0.000779     -0.001006      0.001652      0.000000
     44 C     c      -0.000689      0.007528      0.003615      0.000000
     45 C     c       0.003748      0.000468      0.002875      0.000000
     46 C     c      -0.000103     -0.002835      0.001314      0.000000
     47 C     c      -0.000599      0.000144      0.003271      0.000000
     48 C     c       0.006167      0.004592      0.005540      0.000000
     49 C     c       0.002217     -0.002115      0.004303      0.000000
     50 C     c       0.001848     -0.000778      0.001609      0.000000
     51 C     c      -0.000639      0.001720      0.001476      0.000000
     52 C     c       0.003307     -0.002762     -0.000629      0.000000
     53 C     c       0.002793     -0.000521     -0.000370      0.000000
     54 C     c      -0.002101      0.000377      0.000971      0.000000
     55 C     c       0.000551     -0.002163      0.001054      0.000000
     56 C     c      -0.000478     -0.001804      0.000257      0.000000
     57 C     c      -0.000710     -0.000969     -0.000918      0.000000
     58 C     c      -0.000297     -0.001866      0.001162      0.000000
     59 C     c      -0.000107     -0.000274      0.000713      0.000000
     60 C     c      -0.000403      0.001086      0.002456      0.000000
     61 C     c       0.001349     -0.000365      0.000746      0.000000
     62 C     c      -0.000216     -0.001234      0.000540      0.000000
     63 C     c      -0.000375     -0.000903      0.001553      0.000000
     64 C     c      -0.000145     -0.000263      0.002379      0.000000
--------------------------------------------------------------------------------
  Maximum abs         0.007279      0.009690      0.008726      0.000000
--------------------------------------------------------------------------------


  Time to end of optimisation =       2.0864 seconds


  Peak dynamic memory used =       2.01 MB 


  Timing analysis for GULP :

--------------------------------------------------------------------------------
  Task / Subroutine                                          Time (Seconds)
--------------------------------------------------------------------------------
  Calculation of Brenner energy and derivatives                   1.9958
--------------------------------------------------------------------------------
  Total CPU time                                                  2.0864
--------------------------------------------------------------------------------


  CIF file written as opti_0.9925.cif


  Job Finished at 14:12.58 31st July       2020                               

