********************************************************************************
*                       GENERAL UTILITY LATTICE PROGRAM                        *
*                                 Julian Gale                                  *
*                       Curtin Institute for Computation                       *
*                    School of Molecular and Life Sciences                     *
*                    Curtin University, Western Australia                      *
********************************************************************************
* Version = 5.2.0 * Last modified =  17th December 2019                        *
********************************************************************************
*  optimise     - perform optimisation run                                     *
*  conv         - constant volume calculation                                  *
*  isotropic    - only isotropic cell expansion to be allowed                  *
*  lbfgs        - use limited memory BFGS update                               *
********************************************************************************
* ASE calculation                                                              *
********************************************************************************


  Job Started  at 14:17.59 31st July       2020                               

  Number of CPUs =     1


  Total number of configurations input =      1

********************************************************************************
*  Input for Configuration =   1                                               *
********************************************************************************

  Formula = C64                                                         

  Number of irreducible atoms/shells =      64


  Total number atoms/shells =      64

  Dimensionality = 3               :  Bulk   



  Cartesian lattice vectors (Angstroms) :

        7.612237    0.000000    0.000000
        0.000000    7.612237    0.000000
        0.000000    0.000000    7.612237

  Cell parameters (Angstroms/Degrees):

  a =       7.6122    alpha =  90.0000
  b =       7.6122    beta  =  90.0000
  c =       7.6122    gamma =  90.0000

  Initial cell volume =         441.099843 Angs**3

  Temperature of configuration =   0.00     K 

  Pressure of configuration =         0.000 GPa 

  Fractional coordinates of asymmetric unit :

--------------------------------------------------------------------------------
   No.  Atomic       x           y          z         Charge      Occupancy
        Label      (Frac)      (Frac)     (Frac)        (e)         (Frac)  
--------------------------------------------------------------------------------
      1 C     c    0.035780    0.526170    0.339890     0.00000    1.000000    
      2 C     c    0.229590 *  0.062470 *  0.070680 *   0.00000    1.000000    
      3 C     c    0.086740 *  0.372580 *  0.241540 *   0.00000    1.000000    
      4 C     c    0.849890 *  0.908360 *  0.422460 *   0.00000    1.000000    
      5 C     c    0.441280 *  0.873720 *  0.947590 *   0.00000    1.000000    
      6 C     c    0.787440 *  0.429530 *  0.218620 *   0.00000    1.000000    
      7 C     c    0.901960 *  0.595110 *  0.684440 *   0.00000    1.000000    
      8 C     c    0.792250 *  0.510990 *  0.553950 *   0.00000    1.000000    
      9 C     c    0.109330 *  0.341370 *  0.597450 *   0.00000    1.000000    
     10 C     c    0.368560 *  0.720100 *  0.087270 *   0.00000    1.000000    
     11 C     c    0.859240 *  0.209770 *  0.708270 *   0.00000    1.000000    
     12 C     c    0.544100 *  0.861310 *  0.508880 *   0.00000    1.000000    
     13 C     c    0.399810 *  0.199970 *  0.585870 *   0.00000    1.000000    
     14 C     c    0.169580 *  0.946440 *  0.765170 *   0.00000    1.000000    
     15 C     c    0.498500 *  0.562480 *  0.365890 *   0.00000    1.000000    
     16 C     c    0.950810 *  0.898420 *  0.079280 *   0.00000    1.000000    
     17 C     c    0.116990 *  0.779030 *  0.831300 *   0.00000    1.000000    
     18 C     c    0.273570 *  0.686230 *  0.563680 *   0.00000    1.000000    
     19 C     c    0.707320 *  0.344640 *  0.642410 *   0.00000    1.000000    
     20 C     c    0.019610 *  0.197340 *  0.239350 *   0.00000    1.000000    
     21 C     c    0.914960 *  0.113770 *  0.392490 *   0.00000    1.000000    
     22 C     c    0.837630 *  0.564860 *  0.366020 *   0.00000    1.000000    
     23 C     c    0.432980 *  0.789650 *  0.634100 *   0.00000    1.000000    
     24 C     c    0.769260 *  0.240060 *  0.292990 *   0.00000    1.000000    
     25 C     c    0.643930 *  0.119910 *  0.979490 *   0.00000    1.000000    
     26 C     c    0.485730 *  0.554490 *  0.047940 *   0.00000    1.000000    
     27 C     c    0.577200 *  0.241410 *  0.526410 *   0.00000    1.000000    
     28 C     c    0.601420 *  0.945080 *  0.073870 *   0.00000    1.000000    
     29 C     c    0.456300 *  0.873520 *  0.209870 *   0.00000    1.000000    
     30 C     c    0.305050 *  0.022220 *  0.885080 *   0.00000    1.000000    
     31 C     c    0.783880 *  0.070020 *  0.850190 *   0.00000    1.000000    
     32 C     c    0.845150 *  0.726130 *  0.803670 *   0.00000    1.000000    
     33 C     c    0.277250 *  0.359650 *  0.526010 *   0.00000    1.000000    
     34 C     c    0.192240 *  0.651360 *  0.147020 *   0.00000    1.000000    
     35 C     c    0.059800 *  0.466190 *  0.745160 *   0.00000    1.000000    
     36 C     c    0.299400 *  0.059080 *  0.468830 *   0.00000    1.000000    
     37 C     c    0.158120 *  0.690640 *  0.365300 *   0.00000    1.000000    
     38 C     c    0.510810 *  0.270950 *  0.909310 *   0.00000    1.000000    
     39 C     c    0.030260 *  0.084690 *  0.074760 *   0.00000    1.000000    
     40 C     c    0.731350 *  0.898160 *  0.760240 *   0.00000    1.000000    
     41 C     c    0.354530 *  0.518850 *  0.467700 *   0.00000    1.000000    
     42 C     c    0.050530 *  0.856680 *  0.457030 *   0.00000    1.000000    
     43 C     c    0.032710 *  0.391020 *  0.935900 *   0.00000    1.000000    
     44 C     c    0.198350 *  0.432400 *  0.080030 *   0.00000    1.000000    
     45 C     c    0.156630 *  0.641120 *  0.718440 *   0.00000    1.000000    
     46 C     c    0.878180 *  0.482020 *  0.050850 *   0.00000    1.000000    
     47 C     c    0.770670 *  0.816050 *  0.111880 *   0.00000    1.000000    
     48 C     c    0.956570 *  0.195360 *  0.913820 *   0.00000    1.000000    
     49 C     c    0.760580 *  0.757830 *  0.309070 *   0.00000    1.000000    
     50 C     c    0.784460 *  0.652370 *  0.979350 *   0.00000    1.000000    
     51 C     c    0.134860 *  0.001610 *  0.567360 *   0.00000    1.000000    
     52 C     c    0.449340 *  0.221950 *  0.230520 *   0.00000    1.000000    
     53 C     c    0.398790 *  0.353120 *  0.068820 *   0.00000    1.000000    
     54 C     c    0.340680 *  0.047910 *  0.256940 *   0.00000    1.000000    
     55 C     c    0.598360 *  0.221420 *  0.346800 *   0.00000    1.000000    
     56 C     c    0.391290 *  0.170980 *  0.786620 *   0.00000    1.000000    
     57 C     c    0.608190 *  0.415170 *  0.804460 *   0.00000    1.000000    
     58 C     c    0.706980 *  0.925380 *  0.564050 *   0.00000    1.000000    
     59 C     c    0.070550 *  0.762920 *  0.012520 *   0.00000    1.000000    
     60 C     c    0.578950 *  0.471410 *  0.218930 *   0.00000    1.000000    
     61 C     c    0.558470 *  0.760510 *  0.348430 *   0.00000    1.000000    
     62 C     c    0.998680 *  0.176400 *  0.572620 *   0.00000    1.000000    
     63 C     c    0.602800 *  0.596610 *  0.896230 *   0.00000    1.000000    
     64 C     c    0.545760 *  0.785700 *  0.804830 *   0.00000    1.000000    
--------------------------------------------------------------------------------


  Constraints : 

--------------------------------------------------------------------------------
  Constraint no.      Unconstrained     Constrained    Coefficient    Offset
                         Variable         Variable
--------------------------------------------------------------------------------
           1              Strain 1        Strain 2       1.00000      0.0000
           2              Strain 1        Strain 3       1.00000      0.0000
--------------------------------------------------------------------------------


********************************************************************************
*  General input information                                                   *
********************************************************************************

  Species output for all configurations : 

--------------------------------------------------------------------------------
  Species    Type    Atomic    Atomic    Charge       Radii (Angs)     Library
                     Number     Mass       (e)     Cova   Ionic  VDW   Symbol
--------------------------------------------------------------------------------
    C        Core        6      12.01   0.000000   0.770  0.000  1.530          
--------------------------------------------------------------------------------


  Lattice summation method               =    Ewald          (3-D)
                                         =    Parry          (2-D)
                                         =    Saunders et al (1-D)
  Accuracy factor for lattice sums       =   12.000


  Analytic derivatives to be used

  Time limit = Infinity

  Maximum range for interatomic potentials =    100000.000000 Angstroms

  Brenner et al 2002 potential to be used with explicit splines for P


********************************************************************************
*  Output for configuration   1                                                *
********************************************************************************


  Components of energy : 

--------------------------------------------------------------------------------
  Interatomic potentials     =           0.00000000 eV    
  Brenner potentials         =        -421.79694081 eV    
  Monopole - monopole (real) =           0.00000000 eV    
  Monopole - monopole (recip)=           0.00000000 eV    
  Monopole - monopole (total)=           0.00000000 eV    
--------------------------------------------------------------------------------
  Total lattice energy       =        -421.79694081 eV    
--------------------------------------------------------------------------------
  Total lattice energy       =          -40696.9570 kJ/(mole unit cells)
--------------------------------------------------------------------------------


  Number of variables =      189

  Maximum number of calculations  =          2000
  Maximum Hessian update interval =            10
  Maximum step size               =   1.000000000
  Maximum parameter tolerance     =   0.000010000
  Maximum function  tolerance     =   0.000010000
  Maximum gradient  tolerance     =   0.001000000
  Maximum gradient  component     =   0.010000000

  Maximum LM gradient tolerance   =   0.900000000
  Symmetry not applied to optimisation

  Limited Memory BFGS to be used of order   10

  BFGS hessian update to be used

  Lower half triangular hessian to be used

  Start of bulk optimisation :

  Cycle:      0 Energy:      -421.796941  Gnorm:      0.446787  CPU:    0.025
  Cycle:      1 Energy:      -421.970634  Gnorm:      0.366155  CPU:    0.054
  Cycle:      2 Energy:      -422.471410  Gnorm:      0.207691  CPU:    0.059
  Cycle:      3 Energy:      -422.573802  Gnorm:      0.219014  CPU:    0.063
  Cycle:      4 Energy:      -422.663503  Gnorm:      0.140521  CPU:    0.089
  Cycle:      5 Energy:      -422.755299  Gnorm:      0.096656  CPU:    0.097
  Cycle:      6 Energy:      -422.809200  Gnorm:      0.103032  CPU:    0.114
  Cycle:      7 Energy:      -422.829550  Gnorm:      0.195596  CPU:    0.129
  Cycle:      8 Energy:      -422.875422  Gnorm:      0.061015  CPU:    0.136
  Cycle:      9 Energy:      -422.888701  Gnorm:      0.052743  CPU:    0.141
  Cycle:     10 Energy:      -422.908799  Gnorm:      0.055577  CPU:    0.145
  Cycle:     11 Energy:      -422.931966  Gnorm:      0.058511  CPU:    0.168
  Cycle:     12 Energy:      -422.944721  Gnorm:      0.065063  CPU:    0.180
  Cycle:     13 Energy:      -422.956225  Gnorm:      0.032542  CPU:    0.195
  Cycle:     14 Energy:      -422.962076  Gnorm:      0.031526  CPU:    0.213
  Cycle:     15 Energy:      -422.968225  Gnorm:      0.044495  CPU:    0.229
  Cycle:     16 Energy:      -422.973279  Gnorm:      0.031013  CPU:    0.247
  Cycle:     17 Energy:      -422.976973  Gnorm:      0.025520  CPU:    0.254
  Cycle:     18 Energy:      -422.980616  Gnorm:      0.027384  CPU:    0.260
  Cycle:     19 Energy:      -422.983025  Gnorm:      0.028465  CPU:    0.264
  Cycle:     20 Energy:      -422.984656  Gnorm:      0.015699  CPU:    0.277
  Cycle:     21 Energy:      -422.986135  Gnorm:      0.013093  CPU:    0.296
  Cycle:     22 Energy:      -422.987199  Gnorm:      0.017136  CPU:    0.304
  Cycle:     23 Energy:      -422.988693  Gnorm:      0.017334  CPU:    0.309
  Cycle:     24 Energy:      -422.989800  Gnorm:      0.014865  CPU:    0.314
  Cycle:     25 Energy:      -422.990767  Gnorm:      0.012877  CPU:    0.322
  Cycle:     26 Energy:      -422.991791  Gnorm:      0.017154  CPU:    0.345
  Cycle:     27 Energy:      -422.992816  Gnorm:      0.012003  CPU:    0.353
  Cycle:     28 Energy:      -422.993975  Gnorm:      0.012466  CPU:    0.359
  Cycle:     29 Energy:      -422.994957  Gnorm:      0.022877  CPU:    0.363
  Cycle:     30 Energy:      -422.996028  Gnorm:      0.015573  CPU:    0.368
  Cycle:     31 Energy:      -422.997090  Gnorm:      0.013538  CPU:    0.394
  Cycle:     32 Energy:      -422.998425  Gnorm:      0.018030  CPU:    0.402
  Cycle:     33 Energy:      -422.999937  Gnorm:      0.023093  CPU:    0.408
  Cycle:     34 Energy:      -423.001724  Gnorm:      0.016278  CPU:    0.413
  Cycle:     35 Energy:      -423.004263  Gnorm:      0.016287  CPU:    0.417
  Cycle:     36 Energy:      -423.005443  Gnorm:      0.030596  CPU:    0.442
  Cycle:     37 Energy:      -423.007066  Gnorm:      0.016747  CPU:    0.451
  Cycle:     38 Energy:      -423.008793  Gnorm:      0.014318  CPU:    0.457
  Cycle:     39 Energy:      -423.010026  Gnorm:      0.020819  CPU:    0.462
  Cycle:     40 Energy:      -423.011522  Gnorm:      0.014887  CPU:    0.467
  Cycle:     41 Energy:      -423.012378  Gnorm:      0.018642  CPU:    0.491
  Cycle:     42 Energy:      -423.013142  Gnorm:      0.010643  CPU:    0.500
  Cycle:     43 Energy:      -423.013724  Gnorm:      0.009172  CPU:    0.507
  Cycle:     44 Energy:      -423.014263  Gnorm:      0.011320  CPU:    0.512
  Cycle:     45 Energy:      -423.014851  Gnorm:      0.012739  CPU:    0.516
  Cycle:     46 Energy:      -423.015279  Gnorm:      0.008902  CPU:    0.539
  Cycle:     47 Energy:      -423.015610  Gnorm:      0.007940  CPU:    0.549
  Cycle:     48 Energy:      -423.015881  Gnorm:      0.007791  CPU:    0.556
  Cycle:     49 Energy:      -423.016241  Gnorm:      0.007624  CPU:    0.561
  Cycle:     50 Energy:      -423.016535  Gnorm:      0.009213  CPU:    0.566
  Cycle:     51 Energy:      -423.016782  Gnorm:      0.006123  CPU:    0.587
  Cycle:     52 Energy:      -423.016985  Gnorm:      0.005995  CPU:    0.599
  Cycle:     53 Energy:      -423.017138  Gnorm:      0.009200  CPU:    0.606
  Cycle:     54 Energy:      -423.017327  Gnorm:      0.005195  CPU:    0.611
  Cycle:     55 Energy:      -423.017482  Gnorm:      0.005163  CPU:    0.621
  Cycle:     56 Energy:      -423.017668  Gnorm:      0.008619  CPU:    0.642
  Cycle:     57 Energy:      -423.017841  Gnorm:      0.005741  CPU:    0.649
  Cycle:     58 Energy:      -423.017959  Gnorm:      0.004520  CPU:    0.654
  Cycle:     59 Energy:      -423.018167  Gnorm:      0.006037  CPU:    0.659
  Cycle:     60 Energy:      -423.018323  Gnorm:      0.010821  CPU:    0.669
  Cycle:     61 Energy:      -423.018535  Gnorm:      0.007319  CPU:    0.690
  Cycle:     62 Energy:      -423.018898  Gnorm:      0.006585  CPU:    0.698
  Cycle:     63 Energy:      -423.019136  Gnorm:      0.007621  CPU:    0.704
  Cycle:     64 Energy:      -423.019265  Gnorm:      0.023872  CPU:    0.709
  Cycle:     65 Energy:      -423.019944  Gnorm:      0.007285  CPU:    0.714
  Cycle:     66 Energy:      -423.020150  Gnorm:      0.006459  CPU:    0.739
  Cycle:     67 Energy:      -423.020564  Gnorm:      0.008584  CPU:    0.747
  Cycle:     68 Energy:      -423.021042  Gnorm:      0.015330  CPU:    0.753
  Cycle:     69 Energy:      -423.021591  Gnorm:      0.009834  CPU:    0.758
  Cycle:     70 Energy:      -423.022055  Gnorm:      0.007781  CPU:    0.762
  Cycle:     71 Energy:      -423.022409  Gnorm:      0.011213  CPU:    0.788
  Cycle:     72 Energy:      -423.022779  Gnorm:      0.008990  CPU:    0.797
  Cycle:     73 Energy:      -423.023134  Gnorm:      0.008257  CPU:    0.803
  Cycle:     74 Energy:      -423.023458  Gnorm:      0.011332  CPU:    0.808
  Cycle:     75 Energy:      -423.023762  Gnorm:      0.006998  CPU:    0.812
  Cycle:     76 Energy:      -423.024035  Gnorm:      0.006961  CPU:    0.836
  Cycle:     77 Energy:      -423.024388  Gnorm:      0.008003  CPU:    0.846
  Cycle:     78 Energy:      -423.024538  Gnorm:      0.008825  CPU:    0.854
  Cycle:     79 Energy:      -423.024721  Gnorm:      0.005309  CPU:    0.859
  Cycle:     80 Energy:      -423.024892  Gnorm:      0.004289  CPU:    0.868
  Cycle:     81 Energy:      -423.025038  Gnorm:      0.006934  CPU:    0.890
  Cycle:     82 Energy:      -423.025169  Gnorm:      0.006329  CPU:    0.898
  Cycle:     83 Energy:      -423.025261  Gnorm:      0.003857  CPU:    0.904
  Cycle:     84 Energy:      -423.025357  Gnorm:      0.003143  CPU:    0.909
  Cycle:     85 Energy:      -423.025415  Gnorm:      0.003327  CPU:    0.930
  Cycle:     86 Energy:      -423.025437  Gnorm:      0.006436  CPU:    0.940
  Cycle:     87 Energy:      -423.025491  Gnorm:      0.002684  CPU:    0.946
  Cycle:     88 Energy:      -423.025507  Gnorm:      0.001763  CPU:    0.956
  Cycle:     89 Energy:      -423.025523  Gnorm:      0.001782  CPU:    0.977
  Cycle:     90 Energy:      -423.025534  Gnorm:      0.001870  CPU:    0.984
  Cycle:     91 Energy:      -423.025541  Gnorm:      0.002582  CPU:    0.990
  Cycle:     92 Energy:      -423.025552  Gnorm:      0.001356  CPU:    0.994
  Cycle:     93 Energy:      -423.025563  Gnorm:      0.000971  CPU:    1.006
  Cycle:     94 Energy:      -423.025570  Gnorm:      0.001018  CPU:    1.026
  Cycle:     95 Energy:      -423.025580  Gnorm:      0.002493  CPU:    1.033
  Cycle:     96 Energy:      -423.025588  Gnorm:      0.000844  CPU:    1.039
  Cycle:     97 Energy:      -423.025591  Gnorm:      0.000770  CPU:    1.044
  Cycle:     98 Energy:      -423.025598  Gnorm:      0.000901  CPU:    1.051
  Cycle:     99 Energy:      -423.025601  Gnorm:      0.001469  CPU:    1.079
  Cycle:    100 Energy:      -423.025606  Gnorm:      0.000878  CPU:    1.086
  Cycle:    101 Energy:      -423.025609  Gnorm:      0.000641  CPU:    1.110
  Cycle:    102 Energy:      -423.025611  Gnorm:      0.000966  CPU:    1.118
  Cycle:    103 Energy:      -423.025613  Gnorm:      0.001073  CPU:    1.124
  Cycle:    104 Energy:      -423.025616  Gnorm:      0.000871  CPU:    1.128
  Cycle:    105 Energy:      -423.025618  Gnorm:      0.001764  CPU:    1.133
  Cycle:    106 Energy:      -423.025625  Gnorm:      0.001150  CPU:    1.159
  Cycle:    107 Energy:      -423.025630  Gnorm:      0.001011  CPU:    1.167
  Cycle:    108 Energy:      -423.025645  Gnorm:      0.001242  CPU:    1.173
  Cycle:    109 Energy:      -423.025651  Gnorm:      0.001476  CPU:    1.180
  Cycle:    110 Energy:      -423.025656  Gnorm:      0.000935  CPU:    1.197
  Cycle:    111 Energy:      -423.025662  Gnorm:      0.000891  CPU:    1.212
  Cycle:    112 Energy:      -423.025671  Gnorm:      0.001080  CPU:    1.219
  Cycle:    113 Energy:      -423.025677  Gnorm:      0.002069  CPU:    1.227
  Cycle:    114 Energy:      -423.025684  Gnorm:      0.000829  CPU:    1.232
  Cycle:    115 Energy:      -423.025687  Gnorm:      0.000625  CPU:    1.256
  Cycle:    116 Energy:      -423.025690  Gnorm:      0.000696  CPU:    1.265
  Cycle:    117 Energy:      -423.025694  Gnorm:      0.001081  CPU:    1.272
  Cycle:    118 Energy:      -423.025696  Gnorm:      0.000854  CPU:    1.277
  Cycle:    119 Energy:      -423.025697  Gnorm:      0.000484  CPU:    1.281
  Cycle:    120 Energy:      -423.025699  Gnorm:      0.000547  CPU:    1.304
  Cycle:    121 Energy:      -423.025699  Gnorm:      0.000610  CPU:    1.314
  Cycle:    122 Energy:      -423.025701  Gnorm:      0.000414  CPU:    1.321
  Cycle:    123 Energy:      -423.025702  Gnorm:      0.000372  CPU:    1.326
  Cycle:    124 Energy:      -423.025702  Gnorm:      0.000319  CPU:    1.331
  Cycle:    125 Energy:      -423.025702  Gnorm:      0.000259  CPU:    1.351
  Cycle:    126 Energy:      -423.025702  Gnorm:      0.000252  CPU:    1.363
  Cycle:    127 Energy:      -423.025703  Gnorm:      0.000229  CPU:    1.373
  Cycle:    128 Energy:      -423.025703  Gnorm:      0.000229  CPU:    1.556
  Cycle:    129 Energy:      -423.025703  Gnorm:      0.000229  CPU:    1.579
  Cycle:    130 Energy:      -423.025703  Gnorm:      0.000229  CPU:    1.621
  Cycle:    131 Energy:      -423.025703  Gnorm:      0.000229  CPU:    1.663


  **** Optimisation achieved ****


  Final energy =    -423.02570253 eV
  Final Gnorm  =       0.00017741

  Components of energy : 

--------------------------------------------------------------------------------
  Interatomic potentials     =           0.00000000 eV    
  Brenner potentials         =        -423.02570253 eV    
  Monopole - monopole (real) =           0.00000000 eV    
  Monopole - monopole (recip)=           0.00000000 eV    
  Monopole - monopole (total)=           0.00000000 eV    
--------------------------------------------------------------------------------
  Total lattice energy       =        -423.02570253 eV    
--------------------------------------------------------------------------------
  Total lattice energy       =          -40815.5138 kJ/(mole unit cells)
--------------------------------------------------------------------------------

  Final fractional coordinates of atoms :

--------------------------------------------------------------------------------
   No.  Atomic        x           y          z          Radius
        Label       (Frac)      (Frac)     (Frac)       (Angs) 
--------------------------------------------------------------------------------
     1  C     c     0.035780    0.526170    0.339890    0.000000
     2  C     c     0.239813    0.055626    0.075127    0.000000
     3  C     c     0.085398    0.374262    0.243273    0.000000
     4  C     c     0.861334    0.907936    0.420854    0.000000
     5  C     c     0.448636    0.860597    0.954667    0.000000
     6  C     c     0.782180    0.426559    0.221430    0.000000
     7  C     c     0.905967    0.581945    0.689534    0.000000
     8  C     c     0.797606    0.497971    0.558343    0.000000
     9  C     c     0.117444    0.327926    0.614314    0.000000
    10  C     c     0.371690    0.709135    0.092845    0.000000
    11  C     c     0.869034    0.202630    0.716446    0.000000
    12  C     c     0.551766    0.848311    0.516638    0.000000
    13  C     c     0.405848    0.189677    0.595221    0.000000
    14  C     c     0.177948    0.929774    0.773290    0.000000
    15  C     c     0.501158    0.558131    0.369630    0.000000
    16  C     c     0.961089    0.894203    0.086424    0.000000
    17  C     c     0.125688    0.765895    0.842161    0.000000
    18  C     c     0.278455    0.667899    0.570957    0.000000
    19  C     c     0.717730    0.329894    0.648398    0.000000
    20  C     c     0.024905    0.198541    0.240940    0.000000
    21  C     c     0.916340    0.116126    0.394551    0.000000
    22  C     c     0.837247    0.560782    0.369472    0.000000
    23  C     c     0.442061    0.771921    0.642734    0.000000
    24  C     c     0.775040    0.241336    0.293942    0.000000
    25  C     c     0.649420    0.107462    0.984083    0.000000
    26  C     c     0.484212    0.546747    0.051754    0.000000
    27  C     c     0.585199    0.229185    0.531620    0.000000
    28  C     c     0.610372    0.933856    0.079691    0.000000
    29  C     c     0.461621    0.861936    0.215316    0.000000
    30  C     c     0.317152    0.005573    0.891777    0.000000
    31  C     c     0.793127    0.058562    0.853036    0.000000
    32  C     c     0.845141    0.713880    0.804238    0.000000
    33  C     c     0.291997    0.348289    0.549217    0.000000
    34  C     c     0.191136    0.640947    0.161550    0.000000
    35  C     c     0.058670    0.456915    0.754405    0.000000
    36  C     c     0.308575    0.048180    0.478908    0.000000
    37  C     c     0.161338    0.686389    0.380011    0.000000
    38  C     c     0.521328    0.257159    0.918177    0.000000
    39  C     c     0.040090    0.082026    0.078208    0.000000
    40  C     c     0.741839    0.885351    0.763612    0.000000
    41  C     c     0.366087    0.504910    0.483908    0.000000
    42  C     c     0.053542    0.848140    0.463838    0.000000
    43  C     c     0.030815    0.386414    0.945125    0.000000
    44  C     c     0.201883    0.430843    0.082198    0.000000
    45  C     c     0.160879    0.629034    0.728957    0.000000
    46  C     c     0.876711    0.481045    0.053200    0.000000
    47  C     c     0.778088    0.809764    0.115284    0.000000
    48  C     c     0.965728    0.186071    0.918803    0.000000
    49  C     c     0.764719    0.752697    0.312299    0.000000
    50  C     c     0.788767    0.646843    0.985336    0.000000
    51  C     c     0.140929    0.989366    0.579838    0.000000
    52  C     c     0.452327    0.211125    0.236795    0.000000
    53  C     c     0.405451    0.339194    0.075614    0.000000
    54  C     c     0.345940    0.031271    0.261546    0.000000
    55  C     c     0.601911    0.215350    0.350818    0.000000
    56  C     c     0.404017    0.153187    0.794260    0.000000
    57  C     c     0.619005    0.400769    0.813344    0.000000
    58  C     c     0.717591    0.910538    0.568920    0.000000
    59  C     c     0.083610    0.760292    0.025954    0.000000
    60  C     c     0.578930    0.472877    0.218732    0.000000
    61  C     c     0.559945    0.754290    0.351569    0.000000
    62  C     c     0.009157    0.158023    0.575439    0.000000
    63  C     c     0.606855    0.585623    0.897614    0.000000
    64  C     c     0.554385    0.769976    0.810918    0.000000
--------------------------------------------------------------------------------

  Final internal derivatives :

--------------------------------------------------------------------------------
   No.  Atomic          a             b             c           Radius
        Label          (eV)          (eV)          (eV)        (eV/Angs)
--------------------------------------------------------------------------------
      1 C     c       0.000000      0.000000      0.000000      0.000000
      2 C     c       0.001788      0.000832     -0.001896      0.000000
      3 C     c       0.000715      0.001610     -0.003090      0.000000
      4 C     c      -0.003942      0.000501     -0.002081      0.000000
      5 C     c       0.005873     -0.000308     -0.005995      0.000000
      6 C     c      -0.002509     -0.001406      0.000053      0.000000
      7 C     c       0.002132      0.001001     -0.002918      0.000000
      8 C     c      -0.000920     -0.002298     -0.000260      0.000000
      9 C     c      -0.002230      0.003048     -0.000944      0.000000
     10 C     c      -0.002964      0.004641      0.001098      0.000000
     11 C     c      -0.000100     -0.001888     -0.000548      0.000000
     12 C     c       0.000609     -0.003198      0.001271      0.000000
     13 C     c       0.000184     -0.002621     -0.000893      0.000000
     14 C     c      -0.000404      0.000372     -0.002980      0.000000
     15 C     c      -0.002329     -0.001934     -0.000686      0.000000
     16 C     c      -0.002559      0.002851     -0.001602      0.000000
     17 C     c       0.000670      0.001192     -0.001661      0.000000
     18 C     c      -0.000231     -0.002569     -0.001309      0.000000
     19 C     c       0.000306      0.000609      0.002518      0.000000
     20 C     c      -0.000768     -0.000333     -0.004403      0.000000
     21 C     c      -0.003586      0.000005      0.000502      0.000000
     22 C     c       0.000118     -0.000693     -0.002896      0.000000
     23 C     c       0.000381     -0.001721      0.002380      0.000000
     24 C     c       0.000381     -0.001131     -0.001667      0.000000
     25 C     c       0.004185      0.001391     -0.000793      0.000000
     26 C     c      -0.001313     -0.003810     -0.005740      0.000000
     27 C     c       0.000154     -0.000138     -0.002464      0.000000
     28 C     c      -0.000478     -0.002187     -0.000011      0.000000
     29 C     c      -0.003571     -0.000555      0.002314      0.000000
     30 C     c      -0.002570      0.003500     -0.000296      0.000000
     31 C     c      -0.001842      0.001842     -0.004646      0.000000
     32 C     c      -0.001713     -0.000807     -0.002471      0.000000
     33 C     c      -0.001966      0.000774     -0.002599      0.000000
     34 C     c       0.003349     -0.003950     -0.002381      0.000000
     35 C     c      -0.000519      0.001355     -0.001769      0.000000
     36 C     c      -0.000733     -0.000881      0.000618      0.000000
     37 C     c       0.000074      0.002819      0.001997      0.000000
     38 C     c       0.002144      0.004597     -0.006416      0.000000
     39 C     c       0.004039      0.001188     -0.006817      0.000000
     40 C     c      -0.000331      0.000930     -0.000827      0.000000
     41 C     c      -0.001136      0.001193     -0.000061      0.000000
     42 C     c      -0.001654     -0.004581      0.003978      0.000000
     43 C     c       0.000886     -0.004546     -0.002086      0.000000
     44 C     c       0.000147      0.005086     -0.001179      0.000000
     45 C     c      -0.001836     -0.000673      0.000078      0.000000
     46 C     c      -0.006377      0.002323      0.002677      0.000000
     47 C     c      -0.003528     -0.004902     -0.001098      0.000000
     48 C     c      -0.000992     -0.000690     -0.000644      0.000000
     49 C     c       0.000011     -0.002018     -0.000710      0.000000
     50 C     c       0.000204      0.002874      0.000081      0.000000
     51 C     c       0.000301     -0.002659      0.000670      0.000000
     52 C     c      -0.002055     -0.002886     -0.000366      0.000000
     53 C     c       0.004712     -0.000638      0.000392      0.000000
     54 C     c       0.004585      0.002454     -0.001189      0.000000
     55 C     c      -0.001444      0.001726     -0.003302      0.000000
     56 C     c       0.004209     -0.003754     -0.003556      0.000000
     57 C     c      -0.001624      0.002092     -0.001460      0.000000
     58 C     c       0.001098     -0.004069     -0.000109      0.000000
     59 C     c      -0.000454      0.001330     -0.000791      0.000000
     60 C     c       0.001114     -0.003647      0.001474      0.000000
     61 C     c      -0.001134     -0.003570     -0.000110      0.000000
     62 C     c       0.000487      0.000265      0.001200      0.000000
     63 C     c       0.003336     -0.002018     -0.003229      0.000000
     64 C     c       0.002292     -0.004356     -0.001936      0.000000
--------------------------------------------------------------------------------
  Maximum abs         0.006377      0.005086      0.006817      0.000000
--------------------------------------------------------------------------------


  Time to end of optimisation =       1.6761 seconds


  Peak dynamic memory used =       2.01 MB 


  Timing analysis for GULP :

--------------------------------------------------------------------------------
  Task / Subroutine                                          Time (Seconds)
--------------------------------------------------------------------------------
  Calculation of Brenner energy and derivatives                   1.6369
--------------------------------------------------------------------------------
  Total CPU time                                                  1.6761
--------------------------------------------------------------------------------


  CIF file written as opti_1.0225.cif


  Job Finished at 14:18.00 31st July       2020                               

