********************************************************************************
*                       GENERAL UTILITY LATTICE PROGRAM                        *
*                                 Julian Gale                                  *
*                       Curtin Institute for Computation                       *
*                           Department of Chemistry                            *
*                    Curtin University, Western Australia                      *
********************************************************************************
* Version = 5.1.1 * Last modified =  21st January 2019                         *
********************************************************************************
*  single       - perform a single point run                                   *
*  phonon       - calculate phonons for final geometry                         *
*  nofrequency  - suppress frequency output after phonon calculation           *
********************************************************************************
* diamond                                                                      *
********************************************************************************


  Job Started  at 19:51.27 24th May        2021                               

  Number of CPUs =    20

  Host name      = p3                                      


  Total number of configurations input =      1

********************************************************************************
*  Input for Configuration =   1                                               *
********************************************************************************

  Formula = C8                                                          

  Number of irreducible atoms/shells =       8


  Total number atoms/shells =       8

  Dimensionality = 3               :  Bulk   



  Cartesian lattice vectors (Angstroms) :

        3.570000    0.000000    0.000000
        0.000000    3.570000    0.000000
        0.000000    0.000000    3.570000

  Cell parameters (Angstroms/Degrees):

  a =       3.5700    alpha =  90.0000
  b =       3.5700    beta  =  90.0000
  c =       3.5700    gamma =  90.0000

  Initial cell volume =          45.499293 Angs**3

  Shrinking factors =      6     6     6

  Temperature of configuration =  0.000     K 

  Pressure of configuration =         0.000 GPa 

  Fractional coordinates of asymmetric unit :

--------------------------------------------------------------------------------
   No.  Atomic       x           y          z         Charge      Occupancy
        Label      (Frac)      (Frac)     (Frac)        (e)         (Frac)  
--------------------------------------------------------------------------------
      1 C     c    0.000000    0.000000    0.000000     0.00000    1.000000    
      2 C     c    0.000000    0.500000    0.500000     0.00000    1.000000    
      3 C     c    0.500000    0.500000    0.000000     0.00000    1.000000    
      4 C     c    0.500000    0.000000    0.500000     0.00000    1.000000    
      5 C     c    0.750000    0.250000    0.750000     0.00000    1.000000    
      6 C     c    0.250000    0.250000    0.250000     0.00000    1.000000    
      7 C     c    0.250000    0.750000    0.750000     0.00000    1.000000    
      8 C     c    0.750000    0.750000    0.250000     0.00000    1.000000    
--------------------------------------------------------------------------------


  Brillouin zone sampling points :

--------------------------------------------------------------------------------
  Point number          x          y          z            Weight
--------------------------------------------------------------------------------
        1           0.500000   0.000000   0.500000     0.00403226
        2           0.473684   0.000000   0.500000     0.00403226
        3           0.447368   0.000000   0.500000     0.00403226
        4           0.421053   0.000000   0.500000     0.00403226
        5           0.394737   0.000000   0.500000     0.00403226
        6           0.368421   0.000000   0.500000     0.00403226
        7           0.342105   0.000000   0.500000     0.00403226
        8           0.315789   0.000000   0.500000     0.00403226
        9           0.289474   0.000000   0.500000     0.00403226
       10           0.263158   0.000000   0.500000     0.00403226
       11           0.236842   0.000000   0.500000     0.00403226
       12           0.210526   0.000000   0.500000     0.00403226
       13           0.184211   0.000000   0.500000     0.00403226
       14           0.157895   0.000000   0.500000     0.00403226
       15           0.131579   0.000000   0.500000     0.00403226
       16           0.105263   0.000000   0.500000     0.00403226
       17           0.078947   0.000000   0.500000     0.00403226
       18           0.052632   0.000000   0.500000     0.00403226
       19           0.026316   0.000000   0.500000     0.00403226
       20           0.000000   0.000000   0.500000     0.00403226
       21           0.000000   0.000000   0.500000     0.00403226
       22           0.000000   0.000000   0.473684     0.00403226
       23           0.000000   0.000000   0.447368     0.00403226
       24           0.000000   0.000000   0.421053     0.00403226
       25           0.000000   0.000000   0.394737     0.00403226
       26           0.000000   0.000000   0.368421     0.00403226
       27           0.000000   0.000000   0.342105     0.00403226
       28           0.000000   0.000000   0.315789     0.00403226
       29           0.000000   0.000000   0.289474     0.00403226
       30           0.000000   0.000000   0.263158     0.00403226
       31           0.000000   0.000000   0.236842     0.00403226
       32           0.000000   0.000000   0.210526     0.00403226
       33           0.000000   0.000000   0.184211     0.00403226
       34           0.000000   0.000000   0.157895     0.00403226
       35           0.000000   0.000000   0.131579     0.00403226
       36           0.000000   0.000000   0.105263     0.00403226
       37           0.000000   0.000000   0.078947     0.00403226
       38           0.000000   0.000000   0.052632     0.00403226
       39           0.000000   0.000000   0.026316     0.00403226
       40           0.000000   0.000000   0.000000     0.00403226
       41           0.000000   0.000000   0.000000     0.00403226
       42           0.026316   0.000000   0.000000     0.00403226
       43           0.052632   0.000000   0.000000     0.00403226
       44           0.078947   0.000000   0.000000     0.00403226
       45           0.105263   0.000000   0.000000     0.00403226
       46           0.131579   0.000000   0.000000     0.00403226
       47           0.157895   0.000000   0.000000     0.00403226
       48           0.184211   0.000000   0.000000     0.00403226
       49           0.210526   0.000000   0.000000     0.00403226
       50           0.236842   0.000000   0.000000     0.00403226
       51           0.263158   0.000000   0.000000     0.00403226
       52           0.289474   0.000000   0.000000     0.00403226
       53           0.315789   0.000000   0.000000     0.00403226
       54           0.342105   0.000000   0.000000     0.00403226
       55           0.368421   0.000000   0.000000     0.00403226
       56           0.394737   0.000000   0.000000     0.00403226
       57           0.421053   0.000000   0.000000     0.00403226
       58           0.447368   0.000000   0.000000     0.00403226
       59           0.473684   0.000000   0.000000     0.00403226
       60           0.500000   0.000000   0.000000     0.00403226
       61           0.500000   0.000000   0.000000     0.00403226
       62           0.500000   0.026316   0.000000     0.00403226
       63           0.500000   0.052632   0.000000     0.00403226
       64           0.500000   0.078947   0.000000     0.00403226
       65           0.500000   0.105263   0.000000     0.00403226
       66           0.500000   0.131579   0.000000     0.00403226
       67           0.500000   0.157895   0.000000     0.00403226
       68           0.500000   0.184211   0.000000     0.00403226
       69           0.500000   0.210526   0.000000     0.00403226
       70           0.500000   0.236842   0.000000     0.00403226
       71           0.500000   0.263158   0.000000     0.00403226
       72           0.500000   0.289474   0.000000     0.00403226
       73           0.500000   0.315789   0.000000     0.00403226
       74           0.500000   0.342105   0.000000     0.00403226
       75           0.500000   0.368421   0.000000     0.00403226
       76           0.500000   0.394737   0.000000     0.00403226
       77           0.500000   0.421053   0.000000     0.00403226
       78           0.500000   0.447368   0.000000     0.00403226
       79           0.500000   0.473684   0.000000     0.00403226
       80           0.500000   0.500000   0.000000     0.00403226
       81           0.500000   0.500000   0.000000     0.00403226
       82           0.500000   0.500000   0.026316     0.00403226
       83           0.500000   0.500000   0.052632     0.00403226
       84           0.500000   0.500000   0.078947     0.00403226
       85           0.500000   0.500000   0.105263     0.00403226
       86           0.500000   0.500000   0.131579     0.00403226
       87           0.500000   0.500000   0.157895     0.00403226
       88           0.500000   0.500000   0.184211     0.00403226
       89           0.500000   0.500000   0.210526     0.00403226
       90           0.500000   0.500000   0.236842     0.00403226
       91           0.500000   0.500000   0.263158     0.00403226
       92           0.500000   0.500000   0.289474     0.00403226
       93           0.500000   0.500000   0.315789     0.00403226
       94           0.500000   0.500000   0.342105     0.00403226
       95           0.500000   0.500000   0.368421     0.00403226
       96           0.500000   0.500000   0.394737     0.00403226
       97           0.500000   0.500000   0.421053     0.00403226
       98           0.500000   0.500000   0.447368     0.00403226
       99           0.500000   0.500000   0.473684     0.00403226
      100           0.500000   0.500000   0.500000     0.00403226
      101           0.500000   0.500000   0.500000     0.00403226
      102           0.473684   0.500000   0.500000     0.00403226
      103           0.447368   0.500000   0.500000     0.00403226
      104           0.421053   0.500000   0.500000     0.00403226
      105           0.394737   0.500000   0.500000     0.00403226
      106           0.368421   0.500000   0.500000     0.00403226
      107           0.342105   0.500000   0.500000     0.00403226
      108           0.315789   0.500000   0.500000     0.00403226
      109           0.289474   0.500000   0.500000     0.00403226
      110           0.263158   0.500000   0.500000     0.00403226
      111           0.236842   0.500000   0.500000     0.00403226
      112           0.210526   0.500000   0.500000     0.00403226
      113           0.184211   0.500000   0.500000     0.00403226
      114           0.157895   0.500000   0.500000     0.00403226
      115           0.131579   0.500000   0.500000     0.00403226
      116           0.105263   0.500000   0.500000     0.00403226
      117           0.078947   0.500000   0.500000     0.00403226
      118           0.052632   0.500000   0.500000     0.00403226
      119           0.026316   0.500000   0.500000     0.00403226
      120           0.000000   0.500000   0.500000     0.00403226
      121           0.000000   0.500000   0.500000     0.00403226
      122           0.000000   0.500000   0.473684     0.00403226
      123           0.000000   0.500000   0.447368     0.00403226
      124           0.000000   0.500000   0.421053     0.00403226
      125           0.000000   0.500000   0.394737     0.00403226
      126           0.000000   0.500000   0.368421     0.00403226
      127           0.000000   0.500000   0.342105     0.00403226
      128           0.000000   0.500000   0.315789     0.00403226
      129           0.000000   0.500000   0.289474     0.00403226
      130           0.000000   0.500000   0.263158     0.00403226
      131           0.000000   0.500000   0.236842     0.00403226
      132           0.000000   0.500000   0.210526     0.00403226
      133           0.000000   0.500000   0.184211     0.00403226
      134           0.000000   0.500000   0.157895     0.00403226
      135           0.000000   0.500000   0.131579     0.00403226
      136           0.000000   0.500000   0.105263     0.00403226
      137           0.000000   0.500000   0.078947     0.00403226
      138           0.000000   0.500000   0.052632     0.00403226
      139           0.000000   0.500000   0.026316     0.00403226
      140           0.000000   0.500000   0.000000     0.00403226
      141           0.083333   0.083333   0.083333     0.00403226
      142           0.083333   0.083333   0.250000     0.00403226
      143           0.083333   0.083333   0.416667     0.00403226
      144           0.083333   0.083333   0.583333     0.00403226
      145           0.083333   0.083333   0.750000     0.00403226
      146           0.083333   0.083333   0.916667     0.00403226
      147           0.083333   0.250000   0.083333     0.00403226
      148           0.083333   0.250000   0.250000     0.00403226
      149           0.083333   0.250000   0.416667     0.00403226
      150           0.083333   0.250000   0.583333     0.00403226
      151           0.083333   0.250000   0.750000     0.00403226
      152           0.083333   0.250000   0.916667     0.00403226
      153           0.083333   0.416667   0.083333     0.00403226
      154           0.083333   0.416667   0.250000     0.00403226
      155           0.083333   0.416667   0.416667     0.00403226
      156           0.083333   0.416667   0.583333     0.00403226
      157           0.083333   0.416667   0.750000     0.00403226
      158           0.083333   0.416667   0.916667     0.00403226
      159           0.083333   0.583333   0.083333     0.00403226
      160           0.083333   0.583333   0.250000     0.00403226
      161           0.083333   0.583333   0.416667     0.00403226
      162           0.083333   0.583333   0.583333     0.00403226
      163           0.083333   0.583333   0.750000     0.00403226
      164           0.083333   0.583333   0.916667     0.00403226
      165           0.083333   0.750000   0.083333     0.00403226
      166           0.083333   0.750000   0.250000     0.00403226
      167           0.083333   0.750000   0.416667     0.00403226
      168           0.083333   0.750000   0.583333     0.00403226
      169           0.083333   0.750000   0.750000     0.00403226
      170           0.083333   0.750000   0.916667     0.00403226
      171           0.083333   0.916667   0.083333     0.00403226
      172           0.083333   0.916667   0.250000     0.00403226
      173           0.083333   0.916667   0.416667     0.00403226
      174           0.083333   0.916667   0.583333     0.00403226
      175           0.083333   0.916667   0.750000     0.00403226
      176           0.083333   0.916667   0.916667     0.00403226
      177           0.250000   0.083333   0.083333     0.00403226
      178           0.250000   0.083333   0.250000     0.00403226
      179           0.250000   0.083333   0.416667     0.00403226
      180           0.250000   0.083333   0.583333     0.00403226
      181           0.250000   0.083333   0.750000     0.00403226
      182           0.250000   0.083333   0.916667     0.00403226
      183           0.250000   0.250000   0.083333     0.00403226
      184           0.250000   0.250000   0.250000     0.00403226
      185           0.250000   0.250000   0.416667     0.00403226
      186           0.250000   0.250000   0.583333     0.00403226
      187           0.250000   0.250000   0.750000     0.00403226
      188           0.250000   0.250000   0.916667     0.00403226
      189           0.250000   0.416667   0.083333     0.00403226
      190           0.250000   0.416667   0.250000     0.00403226
      191           0.250000   0.416667   0.416667     0.00403226
      192           0.250000   0.416667   0.583333     0.00403226
      193           0.250000   0.416667   0.750000     0.00403226
      194           0.250000   0.416667   0.916667     0.00403226
      195           0.250000   0.583333   0.083333     0.00403226
      196           0.250000   0.583333   0.250000     0.00403226
      197           0.250000   0.583333   0.416667     0.00403226
      198           0.250000   0.583333   0.583333     0.00403226
      199           0.250000   0.583333   0.750000     0.00403226
      200           0.250000   0.583333   0.916667     0.00403226
      201           0.250000   0.750000   0.083333     0.00403226
      202           0.250000   0.750000   0.250000     0.00403226
      203           0.250000   0.750000   0.416667     0.00403226
      204           0.250000   0.750000   0.583333     0.00403226
      205           0.250000   0.750000   0.750000     0.00403226
      206           0.250000   0.750000   0.916667     0.00403226
      207           0.250000   0.916667   0.083333     0.00403226
      208           0.250000   0.916667   0.250000     0.00403226
      209           0.250000   0.916667   0.416667     0.00403226
      210           0.250000   0.916667   0.583333     0.00403226
      211           0.250000   0.916667   0.750000     0.00403226
      212           0.250000   0.916667   0.916667     0.00403226
      213           0.416667   0.083333   0.083333     0.00403226
      214           0.416667   0.083333   0.250000     0.00403226
      215           0.416667   0.083333   0.416667     0.00403226
      216           0.416667   0.083333   0.583333     0.00403226
      217           0.416667   0.083333   0.750000     0.00403226
      218           0.416667   0.083333   0.916667     0.00403226
      219           0.416667   0.250000   0.083333     0.00403226
      220           0.416667   0.250000   0.250000     0.00403226
      221           0.416667   0.250000   0.416667     0.00403226
      222           0.416667   0.250000   0.583333     0.00403226
      223           0.416667   0.250000   0.750000     0.00403226
      224           0.416667   0.250000   0.916667     0.00403226
      225           0.416667   0.416667   0.083333     0.00403226
      226           0.416667   0.416667   0.250000     0.00403226
      227           0.416667   0.416667   0.416667     0.00403226
      228           0.416667   0.416667   0.583333     0.00403226
      229           0.416667   0.416667   0.750000     0.00403226
      230           0.416667   0.416667   0.916667     0.00403226
      231           0.416667   0.583333   0.083333     0.00403226
      232           0.416667   0.583333   0.250000     0.00403226
      233           0.416667   0.583333   0.416667     0.00403226
      234           0.416667   0.583333   0.583333     0.00403226
      235           0.416667   0.583333   0.750000     0.00403226
      236           0.416667   0.583333   0.916667     0.00403226
      237           0.416667   0.750000   0.083333     0.00403226
      238           0.416667   0.750000   0.250000     0.00403226
      239           0.416667   0.750000   0.416667     0.00403226
      240           0.416667   0.750000   0.583333     0.00403226
      241           0.416667   0.750000   0.750000     0.00403226
      242           0.416667   0.750000   0.916667     0.00403226
      243           0.416667   0.916667   0.083333     0.00403226
      244           0.416667   0.916667   0.250000     0.00403226
      245           0.416667   0.916667   0.416667     0.00403226
      246           0.416667   0.916667   0.583333     0.00403226
      247           0.416667   0.916667   0.750000     0.00403226
      248           0.416667   0.916667   0.916667     0.00403226
--------------------------------------------------------------------------------


********************************************************************************
*  General input information                                                   *
********************************************************************************

  Species output for all configurations : 

--------------------------------------------------------------------------------
  Species    Type    Atomic    Atomic    Charge       Radii (Angs)     Library
                     Number     Mass       (e)     Cova   Ionic  VDW   Symbol
--------------------------------------------------------------------------------
    C        Core        6      12.01   0.000000   0.770  0.000  1.530          
--------------------------------------------------------------------------------


  Lattice summation method               =    Ewald          (3-D)
                                         =    Parry          (2-D)
                                         =    Saunders et al (1-D)
  Accuracy factor for lattice sums       =   12.000


  Time limit = Infinity

  Maximum range for interatomic potentials =    100000.000000 Angstroms

  Brenner et al 2002 potential to be used with explicit splines for P


********************************************************************************
*  Output for configuration   1                                                *
********************************************************************************


  Components of energy : 

--------------------------------------------------------------------------------
  Interatomic potentials     =           0.00000000 eV    
  Brenner potentials         =         -58.95711466 eV    
  Monopole - monopole (real) =           0.00000000 eV    
  Monopole - monopole (recip)=           0.00000000 eV    
  Monopole - monopole (total)=           0.00000000 eV    
--------------------------------------------------------------------------------
  Total lattice energy       =         -58.95711466 eV    
--------------------------------------------------------------------------------
  Total lattice energy       =           -5688.4603 kJ/(mole unit cells)
--------------------------------------------------------------------------------


  Elastic Constant Matrix: (Units=GPa)

-------------------------------------------------------------------------------
  Indices      1         2         3         4         5         6    
-------------------------------------------------------------------------------
       1   1065.6112  121.6996  121.6996   -0.0000   -0.0000   -0.0000
       2    121.6996 1065.6112  121.6996   -0.0000   -0.0000   -0.0000
       3    121.6996  121.6996 1065.6112   -0.0000   -0.0000   -0.0000
       4     -0.0000   -0.0000   -0.0000  713.6015    0.0000    0.0000
       5     -0.0000   -0.0000   -0.0000    0.0000  713.6015    0.0000
       6     -0.0000   -0.0000   -0.0000    0.0000    0.0000  713.6015
-------------------------------------------------------------------------------

  Elastic Constant Tensor Eigenvalues: (Units=GPa)

-------------------------------------------------------------------------------
     1 =   713.6015     2 =   713.6015     3 =   713.6015
     4 =   943.9115     5 =   943.9115     6 =  1309.0104
-------------------------------------------------------------------------------


  Elastic Compliance Matrix: (Units=1/GPa)

-------------------------------------------------------------------------------
  Indices      1         2         3         4         5         6    
-------------------------------------------------------------------------------
       1    0.000961 -0.000098 -0.000098  0.000000  0.000000  0.000000
       2   -0.000098  0.000961 -0.000098  0.000000  0.000000  0.000000
       3   -0.000098 -0.000098  0.000961  0.000000  0.000000  0.000000
       4    0.000000  0.000000  0.000000  0.001401 -0.000000 -0.000000
       5    0.000000  0.000000  0.000000 -0.000000  0.001401 -0.000000
       6    0.000000  0.000000  0.000000 -0.000000 -0.000000  0.001401
-------------------------------------------------------------------------------

  Mechanical properties :

-------------------------------------------------------------------------------
  Convention :                    Reuss         Voigt         Hill
-------------------------------------------------------------------------------
  Bulk  Modulus (GPa)     =     436.33681     436.33681     436.33681
  Shear Modulus (GPa)     =     592.29688     616.94319     604.62004
-------------------------------------------------------------------------------
  Velocity S-wave (km/s)  =      12.99653      13.26418      13.13104
  Velocity P-wave (km/s)  =      18.69884      18.94778      18.82372
-------------------------------------------------------------------------------
  Compressibility (1/GPa) =    0.00229181
-------------------------------------------------------------------------------
  Stress axis :                     x             y             z
-------------------------------------------------------------------------------
  Youngs Moduli (GPa)     =    1040.66268    1040.66268    1040.66268
-------------------------------------------------------------------------------
  Poissons Ratio (x)      =                     0.10250       0.10250
  Poissons Ratio (y)      =       0.10250                     0.10250
  Poissons Ratio (z)      =       0.10250       0.10250
-------------------------------------------------------------------------------


  Piezoelectric Strain Matrix: (Units=C/m**2)

-------------------------------------------------------------------------------
  Indices      1         2         3         4         5         6    
-------------------------------------------------------------------------------
       x    -0.00000  -0.00000  -0.00000  -0.00000  -0.00000  -0.00000
       y    -0.00000  -0.00000  -0.00000  -0.00000  -0.00000  -0.00000
       z    -0.00000  -0.00000  -0.00000  -0.00000  -0.00000  -0.00000
-------------------------------------------------------------------------------


  Piezoelectric Stress Matrix: (Units=10**-11 C/N)

-------------------------------------------------------------------------------
  Indices      1         2         3         4         5         6    
-------------------------------------------------------------------------------
       x     0.00000   0.00000   0.00000   0.00000   0.00000   0.00000
       y     0.00000   0.00000   0.00000   0.00000   0.00000   0.00000
       z     0.00000   0.00000   0.00000   0.00000   0.00000   0.00000
-------------------------------------------------------------------------------


  Static dielectric constant tensor : 

-------------------------------------------------------------------------------
              x         y         z
-------------------------------------------------------------------------------
       x     1.00000   0.00000   0.00000
       y     0.00000   1.00000   0.00000
       z     0.00000   0.00000   1.00000
--------------------------------------------------------------------------------

  Static refractive indices : 

-------------------------------------------------------------------------------
    1 =    1.00000      2 =    1.00000      3 =    1.00000
-------------------------------------------------------------------------------


  Phonon Calculation : 

  K direction for n-a correction at gamma =  1.00000  1.00000  1.00000

  Number of k points for this configuration =      248

--------------------------------------------------------------------------------
  Phonon properties (per mole of unit cells): Temperature =      0.000 K
--------------------------------------------------------------------------------
  Zero point energy            =        1.699309 eV
--------------------------------------------------------------------------------

  Phonon density of states : 

--------------------------------------------------------------------------------
 Frequency (cm-1) Density of States                                             
--------------------------------------------------------------------------------
    0.00000 |                                                              0.000
    0.50000 |                                                              0.000
    1.00000 |                                                              0.000
    1.50000 |                                                              0.000
    2.00000 |                                                              0.000
    2.50000 |                                                              0.000
    3.00000 |                                                              0.000
    3.50000 |                                                              0.000
    4.00000 |                                                              0.000
    4.50000 |                                                              0.000
    5.00000 |                                                              0.000
    5.50000 |                                                              0.000
    6.00000 |                                                              0.000
    6.50000 |                                                              0.000
    7.00000 |                                                              0.000
    7.50000 |                                                              0.000
    8.00000 |                                                              0.000
    8.50000 |                                                              0.000
    9.00000 |                                                              0.000
    9.50000 |                                                              0.000
   10.00000 |                                                              0.000
   10.50000 |                                                              0.000
   11.00000 |                                                              0.000
   11.50000 |                                                              0.000
   12.00000 |                                                              0.000
   12.50000 |                                                              0.000
   13.00000 |                                                              0.000
   13.50000 |                                                              0.000
   14.00000 |                                                              0.000
   14.50000 |                                                              0.000
   15.00000 |                                                              0.000
   15.50000 |                                                              0.000
   16.00000 |                                                              0.000
   16.50000 |                                                              0.000
   17.00000 |                                                              0.000
   17.50000 |                                                              0.000
   18.00000 |                                                              0.000
   18.50000 |                                                              0.000
   19.00000 |                                                              0.000
   19.50000 |                                                              0.000
   20.00000 |                                                              0.000
   20.50000 |                                                              0.000
   21.00000 |                                                              0.000
   21.50000 |                                                              0.000
   22.00000 |                                                              0.000
   22.50000 |                                                              0.000
   23.00000 |                                                              0.000
   23.50000 |                                                              0.000
   24.00000 |                                                              0.000
   24.50000 |                                                              0.000
   25.00000 |                                                              0.000
   25.50000 |                                                              0.000
   26.00000 |                                                              0.000
   26.50000 |                                                              0.000
   27.00000 |                                                              0.000
   27.50000 |                                                              0.000
   28.00000 |                                                              0.000
   28.50000 |                                                              0.000
   29.00000 |                                                              0.000
   29.50000 |                                                              0.000
   30.00000 |                                                              0.000
   30.50000 |                                                              0.000
   31.00000 |                                                              0.000
   31.50000 |                                                              0.000
   32.00000 |                                                              0.000
   32.50000 |                                                              0.000
   33.00000 |                                                              0.000
   33.50000 |                                                              0.000
   34.00000 |                                                              0.000
   34.50000 |                                                              0.000
   35.00000 |                                                              0.000
   35.50000 |                                                              0.000
   36.00000 |                                                              0.000
   36.50000 |                                                              0.000
   37.00000 |                                                              0.000
   37.50000 |                                                              0.000
   38.00000 |                                                              0.000
   38.50000 |                                                              0.000
   39.00000 |                                                              0.000
   39.50000 |                                                              0.000
   40.00000 |                                                              0.000
   40.50000 |                                                              0.000
   41.00000 |                                                              0.000
   41.50000 |                                                              0.000
   42.00000 |                                                              0.000
   42.50000 |                                                              0.000
   43.00000 |                                                              0.000
   43.50000 |                                                              0.000
   44.00000 |                                                              0.000
   44.50000 |                                                              0.000
   45.00000 |                                                              0.000
   45.50000 |                                                              0.000
   46.00000 |                                                              0.000
   46.50000 |                                                              0.000
   47.00000 |                                                              0.000
   47.50000 |                                                              0.000
   48.00000 |                                                              0.000
   48.50000 |                                                              0.000
   49.00000 |                                                              0.000
   49.50000 |                                                              0.000
   50.00000 |                                                              0.000
   50.50000 |                                                              0.000
   51.00000 |                                                              0.000
   51.50000 |                                                              0.000
   52.00000 |                                                              0.000
   52.50000 |                                                              0.000
   53.00000 |                                                              0.000
   53.50000 |                                                              0.000
   54.00000 |                                                              0.000
   54.50000 |                                                              0.000
   55.00000 |                                                              0.000
   55.50000 |                                                              0.000
   56.00000 |                                                              0.000
   56.50000 |                                                              0.000
   57.00000 |                                                              0.000
   57.50000 |                                                              0.000
   58.00000 |                                                              0.000
   58.50000 |                                                              0.000
   59.00000 |                                                              0.000
   59.50000 |                                                              0.000
   60.00000 |                                                              0.000
   60.50000 |                                                              0.000
   61.00000 |                                                              0.000
   61.50000 |                                                              0.000
   62.00000 |                                                              0.000
   62.50000 |                                                              0.000
   63.00000 |                                                              0.000
   63.50000 |                                                              0.000
   64.00000 |                                                              0.000
   64.50000 |                                                              0.000
   65.00000 |                                                              0.000
   65.50000 |                                                              0.000
   66.00000 |                                                              0.000
   66.50000 |                                                              0.000
   67.00000 |                                                              0.000
   67.50000 |                                                              0.000
   68.00000 |                                                              0.000
   68.50000 |                                                              0.000
   69.00000 |                                                              0.000
   69.50000 |                                                              0.000
   70.00000 |                                                              0.000
   70.50000 |                                                              0.000
   71.00000 |                                                              0.000
   71.50000 |                                                              0.000
   72.00000 |                                                              0.000
   72.50000 |                                                              0.000
   73.00000 |                                                              0.000
   73.50000 |                                                              0.000
   74.00000 |                                                              0.000
   74.50000 |                                                              0.000
   75.00000 |                                                              0.000
   75.50000 |                                                              0.000
   76.00000 |                                                              0.000
   76.50000 |                                                              0.000
   77.00000 |                                                              0.000
   77.50000 |                                                              0.000
   78.00000 |                                                              0.000
   78.50000 |                                                              0.000
   79.00000 |                                                              0.000
   79.50000 |                                                              0.000
   80.00000 |                                                              0.000
   80.50000 |                                                              0.000
   81.00000 |                                                              0.000
   81.50000 |                                                              0.000
   82.00000 |                                                              0.000
   82.50000 |                                                              0.000
   83.00000 |                                                              0.000
   83.50000 |                                                              0.000
   84.00000 |                                                              0.000
   84.50000 |                                                              0.000
   85.00000 |                                                              0.000
   85.50000 |                                                              0.000
   86.00000 |                                                              0.000
   86.50000 |                                                              0.000
   87.00000 |                                                              0.000
   87.50000 |                                                              0.000
   88.00000 |                                                              0.000
   88.50000 |                                                              0.000
   89.00000 |                                                              0.000
   89.50000 |                                                              0.000
   90.00000 |                                                              0.000
   90.50000 |                                                              0.000
   91.00000 |                                                              0.000
   91.50000 |                                                              0.000
   92.00000 |                                                              0.000
   92.50000 |                                                              0.000
   93.00000 |                                                              0.000
   93.50000 |                                                              0.000
   94.00000 |                                                              0.000
   94.50000 |                                                              0.000
   95.00000 |                                                              0.000
   95.50000 |                                                              0.000
   96.00000 |                                                              0.000
   96.50000 |                                                              0.000
   97.00000 |                                                              0.000
   97.50000 |                                                              0.000
   98.00000 |                                                              0.000
   98.50000 |                                                              0.000
   99.00000 |                                                              0.000
   99.50000 |                                                              0.000
  100.00000 |                                                              0.000
  100.50000 |                                                              0.000
  101.00000 |                                                              0.000
  101.50000 |                                                              0.000
  102.00000 |                                                              0.000
  102.50000 |                                                              0.000
  103.00000 |                                                              0.000
  103.50000 |                                                              0.000
  104.00000 |                                                              0.000
  104.50000 |                                                              0.000
  105.00000 |                                                              0.000
  105.50000 |                                                              0.000
  106.00000 |                                                              0.000
  106.50000 |                                                              0.000
  107.00000 |                                                              0.000
  107.50000 |                                                              0.000
  108.00000 |                                                              0.000
  108.50000 |                                                              0.000
  109.00000 |                                                              0.000
  109.50000 |                                                              0.000
  110.00000 |                                                              0.000
  110.50000 |                                                              0.000
  111.00000 |                                                              0.000
  111.50000 |                                                              0.000
  112.00000 |                                                              0.000
  112.50000 |                                                              0.000
  113.00000 |                                                              0.000
  113.50000 |                                                              0.000
  114.00000 |                                                              0.000
  114.50000 |                                                              0.000
  115.00000 |                                                              0.000
  115.50000 |                                                              0.000
  116.00000 |                                                              0.000
  116.50000 |                                                              0.000
  117.00000 |                                                              0.000
  117.50000 |                                                              0.000
  118.00000 |                                                              0.000
  118.50000 |                                                              0.000
  119.00000 |                                                              0.000
  119.50000 |                                                              0.000
  120.00000 |                                                              0.000
  120.50000 |                                                              0.000
  121.00000 |                                                              0.000
  121.50000 |                                                              0.000
  122.00000 |                                                              0.000
  122.50000 |                                                              0.000
  123.00000 |                                                              0.000
  123.50000 |                                                              0.000
  124.00000 |                                                              0.000
  124.50000 |                                                              0.000
  125.00000 |                                                              0.000
  125.50000 |                                                              0.000
  126.00000 |                                                              0.000
  126.50000 |                                                              0.000
  127.00000 |                                                              0.000
  127.50000 |                                                              0.000
  128.00000 |                                                              0.000
  128.50000 |                                                              0.000
  129.00000 |                                                              0.000
  129.50000 |                                                              0.000
  130.00000 |                                                              0.000
  130.50000 |                                                              0.000
  131.00000 |                                                              0.000
  131.50000 |                                                              0.000
  132.00000 |                                                              0.000
  132.50000 |                                                              0.000
  133.00000 |                                                              0.000
  133.50000 |                                                              0.000
  134.00000 |                                                              0.000
  134.50000 |                                                              0.000
  135.00000 |                                                              0.000
  135.50000 |                                                              0.000
  136.00000 |                                                              0.000
  136.50000 |                                                              0.000
  137.00000 |                                                              0.000
  137.50000 |                                                              0.000
  138.00000 |                                                              0.000
  138.50000 |                                                              0.000
  139.00000 |                                                              0.000
  139.50000 |                                                              0.000
  140.00000 |                                                              0.000
  140.50000 |                                                              0.000
  141.00000 |                                                              0.000
  141.50000 |                                                              0.000
  142.00000 |                                                              0.000
  142.50000 |                                                              0.000
  143.00000 |                                                              0.000
  143.50000 |                                                              0.000
  144.00000 |                                                              0.000
  144.50000 |                                                              0.000
  145.00000 |                                                              0.000
  145.50000 |                                                              0.000
  146.00000 |                                                              0.000
  146.50000 |                                                              0.000
  147.00000 |                                                              0.000
  147.50000 |                                                              0.000
  148.00000 |                                                              0.000
  148.50000 |                                                              0.000
  149.00000 |                                                              0.000
  149.50000 |                                                              0.000
  150.00000 |                                                              0.000
  150.50000 |                                                              0.000
  151.00000 |                                                              0.000
  151.50000 |                                                              0.000
  152.00000 |                                                              0.000
  152.50000 |                                                              0.000
  153.00000 |                                                              0.000
  153.50000 |                                                              0.000
  154.00000 |                                                              0.000
  154.50000 |                                                              0.000
  155.00000 |                                                              0.000
  155.50000 |                                                              0.000
  156.00000 |                                                              0.000
  156.50000 |                                                              0.000
  157.00000 |                                                              0.000
  157.50000 |                                                              0.000
  158.00000 |                                                              0.000
  158.50000 |                                                              0.000
  159.00000 |                                                              0.000
  159.50000 |                                                              0.000
  160.00000 |                                                              0.000
  160.50000 |                                                              0.000
  161.00000 |                                                              0.000
  161.50000 |                                                              0.000
  162.00000 |                                                              0.000
  162.50000 |                                                              0.000
  163.00000 |                                                              0.000
  163.50000 |                                                              0.000
  164.00000 |                                                              0.000
  164.50000 |                                                              0.000
  165.00000 |                                                              0.000
  165.50000 |                                                              0.000
  166.00000 |                                                              0.000
  166.50000 |                                                              0.000
  167.00000 |                                                              0.000
  167.50000 |                                                              0.000
  168.00000 |**********                                                    0.003
  168.50000 |                                                              0.000
  169.00000 |                                                              0.000
  169.50000 |                                                              0.000
  170.00000 |                                                              0.000
  170.50000 |                                                              0.000
  171.00000 |                                                              0.000
  171.50000 |                                                              0.000
  172.00000 |                                                              0.000
  172.50000 |                                                              0.000
  173.00000 |                                                              0.000
  173.50000 |                                                              0.000
  174.00000 |                                                              0.000
  174.50000 |                                                              0.000
  175.00000 |                                                              0.000
  175.50000 |                                                              0.000
  176.00000 |                                                              0.000
  176.50000 |                                                              0.000
  177.00000 |                                                              0.000
  177.50000 |                                                              0.000
  178.00000 |                                                              0.000
  178.50000 |                                                              0.000
  179.00000 |                                                              0.000
  179.50000 |                                                              0.000
  180.00000 |                                                              0.000
  180.50000 |                                                              0.000
  181.00000 |                                                              0.000
  181.50000 |                                                              0.000
  182.00000 |                                                              0.000
  182.50000 |                                                              0.000
  183.00000 |                                                              0.000
  183.50000 |                                                              0.000
  184.00000 |                                                              0.000
  184.50000 |                                                              0.000
  185.00000 |                                                              0.000
  185.50000 |                                                              0.000
  186.00000 |                                                              0.000
  186.50000 |                                                              0.000
  187.00000 |                                                              0.000
  187.50000 |                                                              0.000
  188.00000 |                                                              0.000
  188.50000 |                                                              0.000
  189.00000 |                                                              0.000
  189.50000 |                                                              0.000
  190.00000 |                                                              0.000
  190.50000 |                                                              0.000
  191.00000 |                                                              0.000
  191.50000 |                                                              0.000
  192.00000 |                                                              0.000
  192.50000 |                                                              0.000
  193.00000 |                                                              0.000
  193.50000 |                                                              0.000
  194.00000 |                                                              0.000
  194.50000 |                                                              0.000
  195.00000 |                                                              0.000
  195.50000 |                                                              0.000
  196.00000 |                                                              0.000
  196.50000 |                                                              0.000
  197.00000 |                                                              0.000
  197.50000 |                                                              0.000
  198.00000 |                                                              0.000
  198.50000 |                                                              0.000
  199.00000 |                                                              0.000
  199.50000 |                                                              0.000
  200.00000 |                                                              0.000
  200.50000 |                                                              0.000
  201.00000 |                                                              0.000
  201.50000 |                                                              0.000
  202.00000 |                                                              0.000
  202.50000 |                                                              0.000
  203.00000 |                                                              0.000
  203.50000 |                                                              0.000
  204.00000 |                                                              0.000
  204.50000 |                                                              0.000
  205.00000 |                                                              0.000
  205.50000 |                                                              0.000
  206.00000 |                                                              0.000
  206.50000 |                                                              0.000
  207.00000 |                                                              0.000
  207.50000 |                                                              0.000
  208.00000 |                                                              0.000
  208.50000 |                                                              0.000
  209.00000 |                                                              0.000
  209.50000 |                                                              0.000
  210.00000 |                                                              0.000
  210.50000 |                                                              0.000
  211.00000 |                                                              0.000
  211.50000 |                                                              0.000
  212.00000 |                                                              0.000
  212.50000 |                                                              0.000
  213.00000 |                                                              0.000
  213.50000 |                                                              0.000
  214.00000 |                                                              0.000
  214.50000 |                                                              0.000
  215.00000 |                                                              0.000
  215.50000 |                                                              0.000
  216.00000 |                                                              0.000
  216.50000 |                                                              0.000
  217.00000 |                                                              0.000
  217.50000 |                                                              0.000
  218.00000 |                                                              0.000
  218.50000 |                                                              0.000
  219.00000 |                                                              0.000
  219.50000 |                                                              0.000
  220.00000 |                                                              0.000
  220.50000 |                                                              0.000
  221.00000 |                                                              0.000
  221.50000 |                                                              0.000
  222.00000 |                                                              0.000
  222.50000 |                                                              0.000
  223.00000 |                                                              0.000
  223.50000 |                                                              0.000
  224.00000 |                                                              0.000
  224.50000 |                                                              0.000
  225.00000 |                                                              0.000
  225.50000 |                                                              0.000
  226.00000 |                                                              0.000
  226.50000 |                                                              0.000
  227.00000 |                                                              0.000
  227.50000 |                                                              0.000
  228.00000 |                                                              0.000
  228.50000 |                                                              0.000
  229.00000 |                                                              0.000
  229.50000 |                                                              0.000
  230.00000 |                                                              0.000
  230.50000 |                                                              0.000
  231.00000 |                                                              0.000
  231.50000 |                                                              0.000
  232.00000 |                                                              0.000
  232.50000 |                                                              0.000
  233.00000 |                                                              0.000
  233.50000 |                                                              0.000
  234.00000 |                                                              0.000
  234.50000 |                                                              0.000
  235.00000 |                                                              0.000
  235.50000 |                                                              0.000
  236.00000 |                                                              0.000
  236.50000 |                                                              0.000
  237.00000 |                                                              0.000
  237.50000 |                                                              0.000
  238.00000 |                                                              0.000
  238.50000 |                                                              0.000
  239.00000 |                                                              0.000
  239.50000 |                                                              0.000
  240.00000 |                                                              0.000
  240.50000 |                                                              0.000
  241.00000 |                                                              0.000
  241.50000 |                                                              0.000
  242.00000 |                                                              0.000
  242.50000 |                                                              0.000
  243.00000 |                                                              0.000
  243.50000 |                                                              0.000
  244.00000 |                                                              0.000
  244.50000 |                                                              0.000
  245.00000 |                                                              0.000
  245.50000 |                                                              0.000
  246.00000 |                                                              0.000
  246.50000 |                                                              0.000
  247.00000 |                                                              0.000
  247.50000 |                                                              0.000
  248.00000 |                                                              0.000
  248.50000 |                                                              0.000
  249.00000 |                                                              0.000
  249.50000 |                                                              0.000
  250.00000 |                                                              0.000
  250.50000 |                                                              0.000
  251.00000 |                                                              0.000
  251.50000 |                                                              0.000
  252.00000 |                                                              0.000
  252.50000 |                                                              0.000
  253.00000 |                                                              0.000
  253.50000 |                                                              0.000
  254.00000 |                                                              0.000
  254.50000 |                                                              0.000
  255.00000 |                                                              0.000
  255.50000 |                                                              0.000
  256.00000 |                                                              0.000
  256.50000 |                                                              0.000
  257.00000 |                                                              0.000
  257.50000 |                                                              0.000
  258.00000 |                                                              0.000
  258.50000 |                                                              0.000
  259.00000 |                                                              0.000
  259.50000 |                                                              0.000
  260.00000 |                                                              0.000
  260.50000 |                                                              0.000
  261.00000 |                                                              0.000
  261.50000 |                                                              0.000
  262.00000 |                                                              0.000
  262.50000 |                                                              0.000
  263.00000 |                                                              0.000
  263.50000 |                                                              0.000
  264.00000 |                                                              0.000
  264.50000 |                                                              0.000
  265.00000 |                                                              0.000
  265.50000 |                                                              0.000
  266.00000 |*****                                                         0.002
  266.50000 |                                                              0.000
  267.00000 |                                                              0.000
  267.50000 |                                                              0.000
  268.00000 |                                                              0.000
  268.50000 |                                                              0.000
  269.00000 |                                                              0.000
  269.50000 |                                                              0.000
  270.00000 |                                                              0.000
  270.50000 |                                                              0.000
  271.00000 |                                                              0.000
  271.50000 |                                                              0.000
  272.00000 |                                                              0.000
  272.50000 |                                                              0.000
  273.00000 |                                                              0.000
  273.50000 |                                                              0.000
  274.00000 |                                                              0.000
  274.50000 |                                                              0.000
  275.00000 |                                                              0.000
  275.50000 |                                                              0.000
  276.00000 |                                                              0.000
  276.50000 |                                                              0.000
  277.00000 |                                                              0.000
  277.50000 |                                                              0.000
  278.00000 |                                                              0.000
  278.50000 |                                                              0.000
  279.00000 |                                                              0.000
  279.50000 |                                                              0.000
  280.00000 |                                                              0.000
  280.50000 |                                                              0.000
  281.00000 |                                                              0.000
  281.50000 |                                                              0.000
  282.00000 |                                                              0.000
  282.50000 |                                                              0.000
  283.00000 |                                                              0.000
  283.50000 |                                                              0.000
  284.00000 |                                                              0.000
  284.50000 |                                                              0.000
  285.00000 |                                                              0.000
  285.50000 |                                                              0.000
  286.00000 |                                                              0.000
  286.50000 |                                                              0.000
  287.00000 |                                                              0.000
  287.50000 |                                                              0.000
  288.00000 |                                                              0.000
  288.50000 |                                                              0.000
  289.00000 |                                                              0.000
  289.50000 |                                                              0.000
  290.00000 |                                                              0.000
  290.50000 |                                                              0.000
  291.00000 |                                                              0.000
  291.50000 |                                                              0.000
  292.00000 |                                                              0.000
  292.50000 |                                                              0.000
  293.00000 |                                                              0.000
  293.50000 |                                                              0.000
  294.00000 |                                                              0.000
  294.50000 |                                                              0.000
  295.00000 |                                                              0.000
  295.50000 |                                                              0.000
  296.00000 |                                                              0.000
  296.50000 |                                                              0.000
  297.00000 |                                                              0.000
  297.50000 |                                                              0.000
  298.00000 |                                                              0.000
  298.50000 |                                                              0.000
  299.00000 |                                                              0.000
  299.50000 |                                                              0.000
  300.00000 |                                                              0.000
  300.50000 |                                                              0.000
  301.00000 |                                                              0.000
  301.50000 |                                                              0.000
  302.00000 |                                                              0.000
  302.50000 |                                                              0.000
  303.00000 |                                                              0.000
  303.50000 |                                                              0.000
  304.00000 |                                                              0.000
  304.50000 |                                                              0.000
  305.00000 |                                                              0.000
  305.50000 |                                                              0.000
  306.00000 |                                                              0.000
  306.50000 |                                                              0.000
  307.00000 |                                                              0.000
  307.50000 |                                                              0.000
  308.00000 |                                                              0.000
  308.50000 |                                                              0.000
  309.00000 |                                                              0.000
  309.50000 |                                                              0.000
  310.00000 |                                                              0.000
  310.50000 |                                                              0.000
  311.00000 |                                                              0.000
  311.50000 |                                                              0.000
  312.00000 |                                                              0.000
  312.50000 |                                                              0.000
  313.00000 |                                                              0.000
  313.50000 |                                                              0.000
  314.00000 |                                                              0.000
  314.50000 |                                                              0.000
  315.00000 |                                                              0.000
  315.50000 |                                                              0.000
  316.00000 |                                                              0.000
  316.50000 |                                                              0.000
  317.00000 |                                                              0.000
  317.50000 |                                                              0.000
  318.00000 |                                                              0.000
[...]
 1547.50000 |                                                              0.000
 1548.00000 |                                                              0.000
 1548.50000 |                                                              0.000
 1549.00000 |*****                                                         0.002
 1549.50000 |                                                              0.000
 1550.00000 |                                                              0.000
 1550.50000 |                                                              0.000
 1551.00000 |                                                              0.000
 1551.50000 |                                                              0.000
 1552.00000 |                                                              0.000
 1552.50000 |***************                                               0.005
 1553.00000 |                                                              0.000
 1553.50000 |                                                              0.000
 1554.00000 |                                                              0.000
 1554.50000 |                                                              0.000
 1555.00000 |                                                              0.000
 1555.50000 |                                                              0.000
 1556.00000 |                                                              0.000
 1556.50000 |                                                              0.000
 1557.00000 |                                                              0.000
 1557.50000 |                                                              0.000
 1558.00000 |                                                              0.000
 1558.50000 |                                                              0.000
 1559.00000 |                                                              0.000
 1559.50000 |*************************                                     0.008
 1560.00000 |                                                              0.000
 1560.50000 |                                                              0.000
 1561.00000 |                                                              0.000
 1561.50000 |                                                              0.000
 1562.00000 |                                                              0.000
 1562.50000 |                                                              0.000
 1563.00000 |                                                              0.000
 1563.50000 |                                                              0.000
 1564.00000 |                                                              0.000
 1564.50000 |                                                              0.000
 1565.00000 |                                                              0.000
 1565.50000 |                                                              0.000
 1566.00000 |                                                              0.000
 1566.50000 |                                                              0.000
 1567.00000 |*****                                                         0.002
--------------------------------------------------------------------------------




  Phonon density of states written as diamond.dens                  



  Phonon dispersion curves : 

--------------------------------------------------------------------------------
  Section number =   1
--------------------------------------------------------------------------------
  Frequency (cm-1) Phonon dispersion                                            
--------------------------------------------------------------------------------
  1515.24   |                                      *  *  *  *  *  *  *  *
  1452.10   |  *  *  *  *  *  *  *  *  *  *  *  *  *  *  *  *  *  *  *  *
  1388.97   |  *  *  *  *  *  *  *  *  *  *  *  *  *  *  *  *  *         
  1325.83   |        *  *  *  *  *  *  *  *  *  *  *  *  *  *  *  *  *  *
  1262.70   |                          *  *  *  *  *                     
  1199.56   |                                         *  *  *            
  1136.43   |                                                  *  *  *   
  1073.29   |                                      *  *  *  *  *  *  *  *
  1010.16   |              *  *  *  *  *  *  *  *        *  *  *         
   947.02   |  *  *  *  *  *  *  *              *  *  *                  
   883.89   |  *  *  *  *  *  *  *        *  *                           
   820.75   |     *  *  *        *  *  *  *  *  *                        
   757.62   |        *  *  *  *  *                 *  *  *  *  *  *  *  *
   694.48   |  *  *  *              *  *  *  *  *                        
   631.35   |           *  *  *  *  *  *  *        *  *  *  *  *  *  *  *
   568.21   |                                *  *  *  *  *               
   505.08   |                                                            
   441.94   |                                                            
   378.81   |                                                            
   315.67   |                                                            
   252.54   |                                                            
   189.40   |                                                            
   126.27   |                                                            
    63.13   |                                                            
     0.00   |                                                            
--------------------------------------------------------------------------------
  Section number =   2
--------------------------------------------------------------------------------
  Frequency (cm-1) Phonon dispersion                                            
--------------------------------------------------------------------------------
  1515.24   |  *  *  *  *  *  *  *  *  *  *  *  *  *  *  *  *  *  *  *  *
  1452.10   |  *  *  *  *  *  *  *  *  *  *                              
  1388.97   |           *  *  *  *  *        *  *  *  *                  
  1325.83   |  *  *  *  *  *  *  *  *  *  *  *  *  *  *  *  *  *  *      
  1262.70   |                                      *  *  *  *  *  *  *  *
  1199.56   |                                      *  *  *  *  *  *  *  *
  1136.43   |           *  *  *  *  *  *  *  *  *  *  *  *               
  1073.29   |  *  *  *  *  *  *  *  *  *  *  *  *  *  *  *  *  *         
  1010.16   |                          *  *              *  *  *  *  *  *
   947.02   |                    *  *              *  *                  
   883.89   |              *  *           *  *  *                        
   820.75   |        *  *           *  *                                 
   757.62   |  *  *        *  *  *                                       
   694.48   |     *  *  *                                                
   631.35   |  *  *     *                                                
   568.21   |     *  *     *  *                                          
   505.08   |           *  *     *                                       
   441.94   |                 *  *  *  *                                 
   378.81   |                       *  *  *  *                           
   315.67   |                             *     *                        
   252.54   |                                *  *  *  *                  
   189.40   |                                      *  *  *               
   126.27   |                                            *  *  *         
    63.13   |                                                  *  *      
     0.00   |                                                        *  *
--------------------------------------------------------------------------------
  Section number =   3
--------------------------------------------------------------------------------
  Frequency (cm-1) Phonon dispersion                                            
--------------------------------------------------------------------------------
  1515.24   |  *  *  *  *  *  *  *  *  *  *  *  *  *  *  *  *  *  *  *  *
  1452.10   |                                *  *  *  *  *  *  *  *  *  *
  1388.97   |                    *  *  *  *        *  *  *  *  *         
  1325.83   |        *  *  *  *  *  *  *  *  *  *  *  *  *  *  *  *  *  *
  1262.70   |  *  *  *  *  *  *  *  *                                    
  1199.56   |  *  *  *  *  *  *  *  *                                    
  1136.43   |                 *  *  *  *  *  *  *  *  *  *  *  *         
  1073.29   |           *  *  *  *  *  *  *  *  *  *  *  *  *  *  *  *  *
  1010.16   |  *  *  *  *  *  *              *  *                        
   947.02   |                    *  *              *  *                  
   883.89   |                          *  *  *           *  *            
   820.75   |                                   *  *           *  *      
   757.62   |                                         *  *  *        *  *
   694.48   |                                                  *  *  *   
   631.35   |                                                  *     *  *
   568.21   |                                            *  *     *  *   
   505.08   |                                         *     *  *         
   441.94   |                                   *  *  *  *               
   378.81   |                             *  *  *  *                     
   315.67   |                          *     *                           
   252.54   |                    *  *  *  *                              
   189.40   |                 *  *  *                                    
   126.27   |           *  *  *                                          
    63.13   |        *  *                                                
     0.00   |  *  *                                                      
--------------------------------------------------------------------------------
  Section number =   4
--------------------------------------------------------------------------------
  Frequency (cm-1) Phonon dispersion                                            
--------------------------------------------------------------------------------
  1515.24   |  *  *  *  *  *  *  *  *                                    
  1452.10   |  *  *  *  *  *  *  *  *  *  *  *  *  *  *  *  *  *  *  *  *
  1388.97   |           *  *  *  *  *  *  *  *  *  *  *  *  *  *  *  *  *
  1325.83   |  *  *  *  *  *  *  *  *  *  *  *  *  *  *  *  *  *  *      
  1262.70   |                       *  *  *  *  *                        
  1199.56   |              *  *  *                                       
  1136.43   |     *  *  *                                                
  1073.29   |  *  *  *  *  *  *  *  *                                    
  1010.16   |           *  *  *        *  *  *  *  *  *  *  *            
   947.02   |                    *  *  *              *  *  *  *  *  *  *
   883.89   |                             *  *        *  *  *  *  *  *  *
   820.75   |                          *  *  *  *  *  *        *  *  *   
   757.62   |  *  *  *  *  *  *  *  *                 *  *  *  *  *      
   694.48   |                          *  *  *  *  *              *  *  *
   631.35   |  *  *  *  *  *  *  *  *        *  *  *  *  *  *  *         
   568.21   |                 *  *  *  *  *                              
   505.08   |                                                            
   441.94   |                                                            
   378.81   |                                                            
   315.67   |                                                            
   252.54   |                                                            
   189.40   |                                                            
   126.27   |                                                            
    63.13   |                                                            
     0.00   |                                                            
--------------------------------------------------------------------------------
  Section number =   5
--------------------------------------------------------------------------------
  Frequency (cm-1) Phonon dispersion                                            
--------------------------------------------------------------------------------
  1515.24   |                                                            
  1452.10   |  *  *  *  *  *  *  *  *  *  *  *  *  *  *  *  *  *  *  *  *
  1388.97   |  *  *  *  *  *  *  *  *  *  *  *  *  *  *  *  *  *  *  *  *
  1325.83   |                                                            
  1262.70   |                                                            
  1199.56   |                                                            
  1136.43   |                                                  *  *  *  *
  1073.29   |                                *  *  *  *  *  *            
  1010.16   |                 *  *  *  *  *                              
   947.02   |  *  *  *  *  *                                             
   883.89   |  *                                                         
   820.75   |     *  *  *  *  *  *                                       
   757.62   |                       *  *  *  *  *                        
   694.48   |  *  *  *  *  *  *  *  *  *  *  *  *  *  *  *  *  *  *  *  *
   631.35   |                                                            
   568.21   |                                                            
   505.08   |                                                            
   441.94   |                                                            
   378.81   |                                                            
   315.67   |                                                            
   252.54   |                                                            
   189.40   |                                                            
   126.27   |                                                            
    63.13   |                                                            
     0.00   |                                                            
--------------------------------------------------------------------------------
  Section number =   6
--------------------------------------------------------------------------------
  Frequency (cm-1) Phonon dispersion                                            
--------------------------------------------------------------------------------
  1515.24   |                                                            
  1452.10   |  *  *  *  *  *  *  *  *  *  *  *  *  *  *  *  *  *  *  *  *
  1388.97   |  *  *  *  *  *  *  *  *  *  *  *  *  *  *  *  *  *  *  *  *
  1325.83   |                                                            
  1262.70   |                                                            
  1199.56   |                                                            
  1136.43   |  *  *  *  *                                                
  1073.29   |              *  *  *  *  *  *                              
  1010.16   |                                *  *  *  *  *               
   947.02   |                                               *  *  *  *  *
   883.89   |                                                           *
   820.75   |                                         *  *  *  *  *  *   
   757.62   |                          *  *  *  *  *                     
   694.48   |  *  *  *  *  *  *  *  *  *  *  *  *  *  *  *  *  *  *  *  *
   631.35   |                                                            
   568.21   |                                                            
   505.08   |                                                            
   441.94   |                                                            
   378.81   |                                                            
   315.67   |                                                            
   252.54   |                                                            
   189.40   |                                                            
   126.27   |                                                            
    63.13   |                                                            
     0.00   |                                                            
--------------------------------------------------------------------------------
  Section number =   7
--------------------------------------------------------------------------------
  Frequency (cm-1) Phonon dispersion                                            
--------------------------------------------------------------------------------
  1515.24   |                                      *  *  *  *  *  *  *  *
  1452.10   |  *  *  *  *  *  *  *  *  *  *  *  *  *  *  *  *  *  *  *  *
  1388.97   |  *  *  *  *  *  *  *  *  *  *  *  *  *  *  *  *  *         
  1325.83   |        *  *  *  *  *  *  *  *  *  *  *  *  *  *  *  *  *  *
  1262.70   |                          *  *  *  *  *                     
  1199.56   |                                         *  *  *            
  1136.43   |                                                  *  *  *   
  1073.29   |                                      *  *  *  *  *  *  *  *
  1010.16   |              *  *  *  *  *  *  *  *        *  *  *         
   947.02   |  *  *  *  *  *  *  *              *  *  *                  
   883.89   |  *  *  *  *  *  *  *        *  *                           
   820.75   |     *  *  *        *  *  *  *  *  *                        
   757.62   |        *  *  *  *  *                 *  *  *  *  *  *  *  *
   694.48   |  *  *  *              *  *  *  *  *                        
   631.35   |           *  *  *  *  *  *  *        *  *  *  *  *  *  *  *
   568.21   |                                *  *  *  *  *               
   505.08   |                                                            
   441.94   |                                                            
   378.81   |                                                            
   315.67   |                                                            
   252.54   |                                                            
   189.40   |                                                            
   126.27   |                                                            
    63.13   |                                                            
     0.00   |                                                            
--------------------------------------------------------------------------------


  Phonon dispersion written as diamond.disp                  

  Time to end of properties =      12.9160 seconds


  Peak dynamic memory used =       0.65 MB 


  Timing analysis for GULP :

--------------------------------------------------------------------------------
  Task / Subroutine                                          Time (Seconds)
--------------------------------------------------------------------------------
  Calculation of real space energy and derivatives                0.0006
  Calculation of Brenner energy and derivatives                   8.8904
  Calculation of phonons                                         10.8791
  Global summation overhead                                       1.6973
--------------------------------------------------------------------------------
  Total CPU time                                                 12.9161
--------------------------------------------------------------------------------


  Job Finished at 19:51.39 24th May        2021                               

