********************************************************************************
*                       GENERAL UTILITY LATTICE PROGRAM                        *
*                                 Julian Gale                                  *
*                       Curtin Institute for Computation                       *
*                           Department of Chemistry                            *
*                    Curtin University, Western Australia                      *
********************************************************************************
* Version = 5.1.1 * Last modified =  21st January 2019                         *
********************************************************************************
*  optimise     - perform optimisation run                                     *
*  conp         - constant pressure calculation                                *
*  isotropic    - only isotropic cell expansion to be allowed                  *
*  property     - calculate properties for final geometry                      *
*  phonon       - calculate phonons for final geometry                         *
*  conjugate    - use conjugate gradients minimiser                            *
********************************************************************************
* ASE calculation                                                              *
********************************************************************************


  Job Started  at 10:54.33 21st February   2021                               

  Number of CPUs =    20


  Total number of configurations input =      1

********************************************************************************
*  Input for Configuration =   1                                               *
********************************************************************************

  Formula = C512                                                        

  Number of irreducible atoms/shells =     512


  Total number atoms/shells =     512

  Dimensionality = 3               :  Bulk   



  Cartesian lattice vectors (Angstroms) :

       14.786300    0.000000    0.000000
        0.000000   14.786300    0.000000
        0.000000    0.000000   14.786300

  Cell parameters (Angstroms/Degrees):

  a =      14.7863    alpha =  90.0000
  b =      14.7863    beta  =  90.0000
  c =      14.7863    gamma =  90.0000

  Initial cell volume =        3232.797787 Angs**3

  Temperature of configuration =  0.000     K 

  Pressure of configuration =         0.000 GPa 

  Fractional coordinates of asymmetric unit :

--------------------------------------------------------------------------------
   No.  Atomic       x           y          z         Charge      Occupancy
        Label      (Frac)      (Frac)     (Frac)        (e)         (Frac)  
--------------------------------------------------------------------------------
      1 C     c    0.308750 *  0.396860 *  0.174290 *   0.00000    1.000000    
      2 C     c    0.924360 *  0.014680 *  0.698930 *   0.00000    1.000000    
      3 C     c    0.823330 *  0.279700 *  0.213940 *   0.00000    1.000000    
      4 C     c    0.335830 *  0.536530 *  0.053870 *   0.00000    1.000000    
      5 C     c    0.695940 *  0.971990 *  0.886900 *   0.00000    1.000000    
      6 C     c    0.271060 *  0.308530 *  0.506600 *   0.00000    1.000000    
      7 C     c    0.108670 *  0.990120 *  0.318190 *   0.00000    1.000000    
      8 C     c    0.223840 *  0.965790 *  0.026300 *   0.00000    1.000000    
      9 C     c    0.870330 *  0.216000 *  0.875670 *   0.00000    1.000000    
     10 C     c    0.082130 *  0.901300 *  0.130330 *   0.00000    1.000000    
     11 C     c    0.075170 *  0.603420 *  0.951940 *   0.00000    1.000000    
     12 C     c    0.402410 *  0.282560 *  0.811120 *   0.00000    1.000000    
     13 C     c    0.522450 *  0.090840 *  0.116820 *   0.00000    1.000000    
     14 C     c    0.042940 *  0.488910 *  0.821240 *   0.00000    1.000000    
     15 C     c    0.082110 *  0.147160 *  0.410820 *   0.00000    1.000000    
     16 C     c    0.071800 *  0.553580 *  0.659770 *   0.00000    1.000000    
     17 C     c    0.884970 *  0.135250 *  0.408790 *   0.00000    1.000000    
     18 C     c    0.832690 *  0.459190 *  0.977920 *   0.00000    1.000000    
     19 C     c    0.604310 *  0.341120 *  0.145840 *   0.00000    1.000000    
     20 C     c    0.690110 *  0.878250 *  0.313650 *   0.00000    1.000000    
     21 C     c    0.930180 *  0.813970 *  0.307210 *   0.00000    1.000000    
     22 C     c    0.843830 *  0.490820 *  0.590500 *   0.00000    1.000000    
     23 C     c    0.531260 *  0.766160 *  0.033760 *   0.00000    1.000000    
     24 C     c    0.654280 *  0.785810 *  0.745070 *   0.00000    1.000000    
     25 C     c    0.813010 *  0.044890 *  0.275550 *   0.00000    1.000000    
     26 C     c    0.267280 *  0.038720 *  0.464500 *   0.00000    1.000000    
     27 C     c    0.866910 *  0.868070 *  0.533480 *   0.00000    1.000000    
     28 C     c    0.363680 *  0.516080 *  0.662940 *   0.00000    1.000000    
     29 C     c    0.442230 *  0.803390 *  0.896890 *   0.00000    1.000000    
     30 C     c    0.187550 *  0.015270 *  0.775040 *   0.00000    1.000000    
     31 C     c    0.866800 *  0.156690 *  0.968380 *   0.00000    1.000000    
     32 C     c    0.766990 *  0.739700 *  0.380800 *   0.00000    1.000000    
     33 C     c    0.995250 *  0.043510 *  0.619620 *   0.00000    1.000000    
     34 C     c    0.019360 *  0.174390 *  0.819720 *   0.00000    1.000000    
     35 C     c    0.806000 *  0.590450 *  0.751240 *   0.00000    1.000000    
     36 C     c    0.942500 *  0.074180 *  0.133430 *   0.00000    1.000000    
     37 C     c    0.213230 *  0.086820 *  0.640990 *   0.00000    1.000000    
     38 C     c    0.770100 *  0.842130 *  0.863150 *   0.00000    1.000000    
     39 C     c    0.539350 *  0.935730 *  0.163280 *   0.00000    1.000000    
     40 C     c    0.544810 *  0.088560 *  0.816270 *   0.00000    1.000000    
     41 C     c    0.588860 *  0.015190 *  0.889690 *   0.00000    1.000000    
     42 C     c    0.107370 *  0.109040 *  0.206800 *   0.00000    1.000000    
     43 C     c    0.270650 *  0.649730 *  0.296410 *   0.00000    1.000000    
     44 C     c    0.612250 *  0.471540 *  0.464420 *   0.00000    1.000000    
     45 C     c    0.134900 *  0.193430 *  0.473320 *   0.00000    1.000000    
     46 C     c    0.601920 *  0.303820 *  0.324460 *   0.00000    1.000000    
     47 C     c    0.970630 *  0.370950 *  0.284700 *   0.00000    1.000000    
     48 C     c    0.442200 *  0.480360 *  0.421410 *   0.00000    1.000000    
     49 C     c    0.785500 *  0.751640 *  0.064020 *   0.00000    1.000000    
     50 C     c    0.592700 *  0.458800 *  0.603730 *   0.00000    1.000000    
     51 C     c    0.096050 *  0.870080 *  0.882790 *   0.00000    1.000000    
     52 C     c    0.690830 *  0.355580 *  0.329080 *   0.00000    1.000000    
     53 C     c    0.702680 *  0.692330 *  0.310640 *   0.00000    1.000000    
     54 C     c    0.196670 *  0.904110 *  0.619980 *   0.00000    1.000000    
     55 C     c    0.716700 *  0.423130 *  0.836990 *   0.00000    1.000000    
     56 C     c    0.142150 *  0.451990 *  0.211200 *   0.00000    1.000000    
     57 C     c    0.111100 *  0.431810 *  0.977650 *   0.00000    1.000000    
     58 C     c    0.488780 *  0.612510 *  0.504010 *   0.00000    1.000000    
     59 C     c    0.756290 *  0.457700 *  0.202510 *   0.00000    1.000000    
     60 C     c    0.226360 *  0.187530 *  0.362480 *   0.00000    1.000000    
     61 C     c    0.159010 *  0.197230 *  0.174840 *   0.00000    1.000000    
     62 C     c    0.255150 *  0.972120 *  0.186860 *   0.00000    1.000000    
     63 C     c    0.532740 *  0.540250 *  0.440260 *   0.00000    1.000000    
     64 C     c    0.758470 *  0.289090 *  0.389390 *   0.00000    1.000000    
     65 C     c    0.851120 *  0.529800 *  0.830290 *   0.00000    1.000000    
     66 C     c    0.273320 *  0.305300 *  0.209540 *   0.00000    1.000000    
     67 C     c    0.069740 *  0.976100 *  0.637980 *   0.00000    1.000000    
     68 C     c    0.377040 *  0.387790 *  0.795650 *   0.00000    1.000000    
     69 C     c    0.276630 *  0.096840 *  0.380490 *   0.00000    1.000000    
     70 C     c    0.552020 *  0.200400 *  0.195060 *   0.00000    1.000000    
     71 C     c    0.258530 *  0.578170 *  0.908620 *   0.00000    1.000000    
     72 C     c    0.305240 *  0.171500 *  0.908170 *   0.00000    1.000000    
     73 C     c    0.370780 *  0.914460 *  0.008400 *   0.00000    1.000000    
     74 C     c    0.397200 *  0.528860 *  0.890000 *   0.00000    1.000000    
     75 C     c    0.863110 *  0.067740 *  0.627430 *   0.00000    1.000000    
     76 C     c    0.928400 *  0.493960 *  0.993310 *   0.00000    1.000000    
     77 C     c    0.631630 *  0.557540 *  0.890350 *   0.00000    1.000000    
     78 C     c    0.996170 *  0.790300 *  0.015190 *   0.00000    1.000000    
     79 C     c    0.557410 *  0.727060 *  0.622090 *   0.00000    1.000000    
     80 C     c    0.759330 *  0.218110 *  0.742150 *   0.00000    1.000000    
     81 C     c    0.179850 *  0.397650 *  0.058460 *   0.00000    1.000000    
     82 C     c    0.588330 *  0.475040 *  0.929870 *   0.00000    1.000000    
     83 C     c    0.700480 *  0.895360 *  0.130950 *   0.00000    1.000000    
     84 C     c    0.562660 *  0.709080 *  0.241670 *   0.00000    1.000000    
     85 C     c    0.914730 *  0.584270 *  0.894750 *   0.00000    1.000000    
     86 C     c    0.888710 *  0.310960 *  0.682760 *   0.00000    1.000000    
     87 C     c    0.461520 *  0.525170 *  0.230070 *   0.00000    1.000000    
     88 C     c    0.182980 *  0.915340 *  0.318880 *   0.00000    1.000000    
     89 C     c    0.821570 *  0.749330 *  0.220930 *   0.00000    1.000000    
     90 C     c    0.823940 *  0.366470 *  0.025220 *   0.00000    1.000000    
     91 C     c    0.766590 *  0.392870 *  0.112360 *   0.00000    1.000000    
     92 C     c    0.461490 *  0.734570 *  0.967660 *   0.00000    1.000000    
     93 C     c    0.617090 *  0.701330 *  0.022330 *   0.00000    1.000000    
     94 C     c    0.489430 *  0.605190 *  0.117800 *   0.00000    1.000000    
     95 C     c    0.376270 *  0.893600 *  0.608770 *   0.00000    1.000000    
     96 C     c    0.494060 *  0.075670 *  0.985400 *   0.00000    1.000000    
     97 C     c    0.175610 *  0.810060 *  0.026420 *   0.00000    1.000000    
     98 C     c    0.766240 *  0.461050 *  0.529110 *   0.00000    1.000000    
     99 C     c    0.395420 *  0.181030 *  0.279980 *   0.00000    1.000000    
    100 C     c    0.201890 *  0.922170 *  0.479180 *   0.00000    1.000000    
    101 C     c    0.396940 *  0.135950 *  0.672450 *   0.00000    1.000000    
    102 C     c    0.777240 *  0.093650 *  0.994700 *   0.00000    1.000000    
    103 C     c    0.481780 *  0.134330 *  0.894420 *   0.00000    1.000000    
    104 C     c    0.593180 *  0.935490 *  0.750250 *   0.00000    1.000000    
    105 C     c    0.763290 *  0.359730 *  0.549870 *   0.00000    1.000000    
    106 C     c    0.160700 *  0.006100 *  0.591220 *   0.00000    1.000000    
    107 C     c    0.748940 *  0.566160 *  0.086820 *   0.00000    1.000000    
    108 C     c    0.539160 *  0.333310 *  0.405490 *   0.00000    1.000000    
    109 C     c    0.920100 *  0.777990 *  0.845520 *   0.00000    1.000000    
    110 C     c    0.045590 *  0.907920 *  0.799540 *   0.00000    1.000000    
    111 C     c    0.167590 *  0.746360 *  0.608500 *   0.00000    1.000000    
    112 C     c    0.953690 *  0.959050 *  0.822490 *   0.00000    1.000000    
    113 C     c    0.377440 *  0.093190 *  0.338960 *   0.00000    1.000000    
    114 C     c    0.166370 *  0.718390 *  0.779020 *   0.00000    1.000000    
    115 C     c    0.866120 *  0.605360 *  0.668860 *   0.00000    1.000000    
    116 C     c    0.840220 *  0.210440 *  0.375260 *   0.00000    1.000000    
    117 C     c    0.119920 *  0.577480 *  0.488200 *   0.00000    1.000000    
    118 C     c    0.086940 *  0.809600 *  0.415930 *   0.00000    1.000000    
    119 C     c    0.296940 *  0.530180 *  0.151260 *   0.00000    1.000000    
    120 C     c    0.927030 *  0.361580 *  0.771580 *   0.00000    1.000000    
    121 C     c    0.857700 *  0.971380 *  0.533300 *   0.00000    1.000000    
    122 C     c    0.519240 *  0.240170 *  0.922820 *   0.00000    1.000000    
    123 C     c    0.489220 *  0.707310 *  0.458090 *   0.00000    1.000000    
    124 C     c    0.451420 *  0.795340 *  0.702640 *   0.00000    1.000000    
    125 C     c    0.816790 *  0.197810 *  0.133280 *   0.00000    1.000000    
    126 C     c    0.585060 *  0.915560 *  0.601760 *   0.00000    1.000000    
    127 C     c    0.334220 *  0.676670 *  0.747450 *   0.00000    1.000000    
    128 C     c    0.674610 *  0.318400 *  0.519170 *   0.00000    1.000000    
    129 C     c    0.215300 *  0.302420 *  0.292230 *   0.00000    1.000000    
    130 C     c    0.648050 *  0.720180 *  0.659540 *   0.00000    1.000000    
    131 C     c    0.385960 *  0.699940 *  0.027650 *   0.00000    1.000000    
    132 C     c    0.707410 *  0.458490 *  0.737010 *   0.00000    1.000000    
    133 C     c    0.007390 *  0.897040 *  0.200690 *   0.00000    1.000000    
    134 C     c    0.867280 *  0.865900 *  0.864520 *   0.00000    1.000000    
    135 C     c    0.875590 *  0.074660 *  0.779490 *   0.00000    1.000000    
    136 C     c    0.202900 *  0.584190 *  0.671090 *   0.00000    1.000000    
    137 C     c    0.975360 *  0.167810 *  0.087770 *   0.00000    1.000000    
    138 C     c    0.459220 *  0.971520 *  0.012920 *   0.00000    1.000000    
    139 C     c    0.184570 *  0.821140 *  0.260680 *   0.00000    1.000000    
    140 C     c    0.538550 *  0.419810 *  0.855810 *   0.00000    1.000000    
    141 C     c    0.472330 *  0.000620 *  0.117330 *   0.00000    1.000000    
    142 C     c    0.156040 *  0.614510 *  0.799390 *   0.00000    1.000000    
    143 C     c    0.690280 *  0.946900 *  0.781020 *   0.00000    1.000000    
    144 C     c    0.500770 *  0.152350 *  0.273300 *   0.00000    1.000000    
    145 C     c    0.263010 *  0.218990 *  0.157860 *   0.00000    1.000000    
    146 C     c    0.012620 *  0.296000 *  0.543450 *   0.00000    1.000000    
    147 C     c    0.194200 *  0.614100 *  0.349860 *   0.00000    1.000000    
    148 C     c    0.259200 *  0.071560 *  0.277700 *   0.00000    1.000000    
    149 C     c    0.089140 *  0.278190 *  0.170100 *   0.00000    1.000000    
    150 C     c    0.514530 *  0.535030 *  0.585570 *   0.00000    1.000000    
    151 C     c    0.018750 *  0.628750 *  0.312630 *   0.00000    1.000000    
    152 C     c    0.028800 *  0.575500 *  0.115760 *   0.00000    1.000000    
    153 C     c    0.711330 *  0.877790 *  0.950960 *   0.00000    1.000000    
    154 C     c    0.577400 *  0.586620 *  0.357040 *   0.00000    1.000000    
    155 C     c    0.360550 *  0.750150 *  0.293550 *   0.00000    1.000000    
    156 C     c    0.652610 *  0.725000 *  0.894110 *   0.00000    1.000000    
    157 C     c    0.423210 *  0.140890 *  0.040260 *   0.00000    1.000000    
    158 C     c    0.874880 *  0.344370 *  0.427360 *   0.00000    1.000000    
    159 C     c    0.254860 *  0.756590 *  0.305280 *   0.00000    1.000000    
    160 C     c    0.651600 *  0.910050 *  0.530330 *   0.00000    1.000000    
    161 C     c    0.146080 *  0.290140 *  0.852300 *   0.00000    1.000000    
    162 C     c    0.580130 *  0.376390 *  0.491680 *   0.00000    1.000000    
    163 C     c    0.751900 *  0.751730 *  0.910780 *   0.00000    1.000000    
    164 C     c    0.012920 *  0.864350 *  0.457540 *   0.00000    1.000000    
    165 C     c    0.889510 *  0.718310 *  0.432740 *   0.00000    1.000000    
    166 C     c    0.359660 *  0.619010 *  0.346930 *   0.00000    1.000000    
    167 C     c    0.313650 *  0.006800 *  0.997910 *   0.00000    1.000000    
    168 C     c    0.378810 *  0.260230 *  0.347490 *   0.00000    1.000000    
    169 C     c    0.507880 *  0.952520 *  0.910350 *   0.00000    1.000000    
    170 C     c    0.074830 *  0.274300 *  0.001930 *   0.00000    1.000000    
    171 C     c    0.704940 *  0.568340 *  0.724290 *   0.00000    1.000000    
    172 C     c    0.220600 *  0.448970 *  0.140960 *   0.00000    1.000000    
    173 C     c    0.700850 *  0.317360 *  0.146970 *   0.00000    1.000000    
    174 C     c    0.754640 *  0.845660 *  0.379300 *   0.00000    1.000000    
    175 C     c    0.948160 *  0.026600 *  0.524200 *   0.00000    1.000000    
    176 C     c    0.106080 *  0.676250 *  0.343580 *   0.00000    1.000000    
    177 C     c    0.394340 *  0.069670 *  0.593930 *   0.00000    1.000000    
    178 C     c    0.481790 *  0.856650 *  0.169810 *   0.00000    1.000000    
    179 C     c    0.802240 *  0.297400 *  0.959390 *   0.00000    1.000000    
    180 C     c    0.751140 *  0.610860 *  0.992050 *   0.00000    1.000000    
    181 C     c    0.264720 *  0.754210 *  0.762980 *   0.00000    1.000000    
    182 C     c    0.693370 *  0.534810 *  0.228550 *   0.00000    1.000000    
    183 C     c    0.975510 *  0.835980 *  0.762240 *   0.00000    1.000000    
    184 C     c    0.400690 *  0.960460 *  0.867930 *   0.00000    1.000000    
    185 C     c    0.017200 *  0.799990 *  0.249470 *   0.00000    1.000000    
    186 C     c    0.388760 *  0.991470 *  0.181130 *   0.00000    1.000000    
    187 C     c    0.993340 *  0.479170 *  0.662550 *   0.00000    1.000000    
    188 C     c    0.285300 *  0.374370 *  0.655370 *   0.00000    1.000000    
    189 C     c    0.995880 *  0.166990 *  0.256130 *   0.00000    1.000000    
    190 C     c    0.620120 *  0.834600 *  0.040950 *   0.00000    1.000000    
    191 C     c    0.138150 *  0.016980 *  0.014090 *   0.00000    1.000000    
    192 C     c    0.032960 *  0.642170 *  0.505260 *   0.00000    1.000000    
    193 C     c    0.669580 *  0.453650 *  0.372610 *   0.00000    1.000000    
    194 C     c    0.303000 *  0.396550 *  0.944370 *   0.00000    1.000000    
    195 C     c    0.771150 *  0.990930 *  0.728900 *   0.00000    1.000000    
    196 C     c    0.557650 *  0.008600 *  0.641190 *   0.00000    1.000000    
    197 C     c    0.841350 *  0.092970 *  0.174160 *   0.00000    1.000000    
    198 C     c    0.619130 *  0.818610 *  0.932820 *   0.00000    1.000000    
    199 C     c    0.441140 *  0.600840 *  0.278980 *   0.00000    1.000000    
    200 C     c    0.995150 *  0.630220 *  0.204030 *   0.00000    1.000000    
    201 C     c    0.238750 *  0.369620 *  0.417200 *   0.00000    1.000000    
    202 C     c    0.358630 *  0.715380 *  0.574470 *   0.00000    1.000000    
    203 C     c    0.474900 *  0.366880 *  0.227830 *   0.00000    1.000000    
    204 C     c    0.982370 *  0.322500 *  0.961390 *   0.00000    1.000000    
    205 C     c    0.659270 *  0.027650 *  0.229070 *   0.00000    1.000000    
    206 C     c    0.868760 *  0.764620 *  0.721210 *   0.00000    1.000000    
    207 C     c    0.483710 *  0.190210 *  0.659940 *   0.00000    1.000000    
    208 C     c    0.792450 *  0.354680 *  0.652190 *   0.00000    1.000000    
    209 C     c    0.853930 *  0.827740 *  0.434640 *   0.00000    1.000000    
    210 C     c    0.614680 *  0.507190 *  0.295780 *   0.00000    1.000000    
    211 C     c    0.915420 *  0.866700 *  0.138620 *   0.00000    1.000000    
    212 C     c    0.326240 *  0.088400 *  0.056880 *   0.00000    1.000000    
    213 C     c    0.412800 *  0.601520 *  0.048410 *   0.00000    1.000000    
    214 C     c    0.229870 *  0.663470 *  0.964470 *   0.00000    1.000000    
    215 C     c    0.193980 *  0.911310 *  0.894020 *   0.00000    1.000000    
    216 C     c    0.936190 *  0.917680 *  0.925740 *   0.00000    1.000000    
    217 C     c    0.232250 *  0.878080 *  0.077160 *   0.00000    1.000000    
    218 C     c    0.171070 *  0.416710 *  0.721050 *   0.00000    1.000000    
    219 C     c    0.057730 *  0.207250 *  0.326880 *   0.00000    1.000000    
    220 C     c    0.887320 *  0.211080 *  0.054130 *   0.00000    1.000000    
    221 C     c    0.519390 *  0.233350 *  0.440860 *   0.00000    1.000000    
    222 C     c    0.515790 *  0.007750 *  0.744470 *   0.00000    1.000000    
    223 C     c    0.712750 *  0.273400 *  0.928390 *   0.00000    1.000000    
    224 C     c    0.953430 *  0.294510 *  0.861110 *   0.00000    1.000000    
    225 C     c    0.424850 *  0.957070 *  0.766130 *   0.00000    1.000000    
    226 C     c    0.546840 *  0.135950 *  0.598980 *   0.00000    1.000000    
    227 C     c    0.654270 *  0.170260 *  0.188520 *   0.00000    1.000000    
    228 C     c    0.312930 *  0.504510 *  0.959360 *   0.00000    1.000000    
    229 C     c    0.317670 *  0.029440 *  0.896430 *   0.00000    1.000000    
    230 C     c    0.289480 *  0.841400 *  0.744610 *   0.00000    1.000000    
    231 C     c    0.697900 *  0.824640 *  0.527480 *   0.00000    1.000000    
    232 C     c    0.659810 *  0.038340 *  0.396450 *   0.00000    1.000000    
    233 C     c    0.834800 *  0.710040 *  0.807380 *   0.00000    1.000000    
    234 C     c    0.781880 *  0.484560 *  0.889370 *   0.00000    1.000000    
    235 C     c    0.649870 *  0.688580 *  0.790610 *   0.00000    1.000000    
    236 C     c    0.702150 *  0.144820 *  0.849220 *   0.00000    1.000000    
    237 C     c    0.046860 *  0.479620 *  0.166900 *   0.00000    1.000000    
    238 C     c    0.351740 *  0.989690 *  0.628610 *   0.00000    1.000000    
    239 C     c    0.701280 *  0.229210 *  0.462010 *   0.00000    1.000000    
    240 C     c    0.944020 *  0.703970 *  0.338320 *   0.00000    1.000000    
    241 C     c    0.436100 *  0.433600 *  0.867870 *   0.00000    1.000000    
    242 C     c    0.617560 *  0.555160 *  0.787620 *   0.00000    1.000000    
    243 C     c    0.279770 *  0.863180 *  0.571190 *   0.00000    1.000000    
    244 C     c    0.302060 *  0.565660 *  0.486570 *   0.00000    1.000000    
    245 C     c    0.501750 *  0.401190 *  0.572240 *   0.00000    1.000000    
    246 C     c    0.646160 *  0.212740 *  0.361710 *   0.00000    1.000000    
    247 C     c    0.382990 *  0.676600 *  0.226920 *   0.00000    1.000000    
    248 C     c    0.125590 *  0.760460 *  0.869610 *   0.00000    1.000000    
    249 C     c    0.786800 *  0.830260 *  0.590390 *   0.00000    1.000000    
    250 C     c    0.941210 *  0.769890 *  0.101080 *   0.00000    1.000000    
    251 C     c    0.771710 *  0.228340 *  0.847570 *   0.00000    1.000000    
    252 C     c    0.203850 *  0.232260 *  0.541900 *   0.00000    1.000000    
    253 C     c    0.782030 *  0.000990 *  0.614820 *   0.00000    1.000000    
    254 C     c    0.257080 *  0.403760 *  0.558620 *   0.00000    1.000000    
    255 C     c    0.003500 *  0.531040 *  0.914380 *   0.00000    1.000000    
    256 C     c    0.908650 *  0.309730 *  0.041210 *   0.00000    1.000000    
    257 C     c    0.131740 *  0.375030 *  0.404790 *   0.00000    1.000000    
    258 C     c    0.673140 *  0.076050 *  0.137470 *   0.00000    1.000000    
    259 C     c    0.876040 *  0.702290 *  0.635020 *   0.00000    1.000000    
    260 C     c    0.765720 *  0.086950 *  0.771980 *   0.00000    1.000000    
    261 C     c    0.022340 *  0.404150 *  0.103770 *   0.00000    1.000000    
    262 C     c    0.979360 *  0.479250 *  0.247120 *   0.00000    1.000000    
    263 C     c    0.565270 *  0.837190 *  0.773700 *   0.00000    1.000000    
    264 C     c    0.943540 *  0.556380 *  0.719060 *   0.00000    1.000000    
    265 C     c    0.963120 *  0.733090 *  0.933300 *   0.00000    1.000000    
    266 C     c    0.036630 *  0.128330 *  0.913640 *   0.00000    1.000000    
    267 C     c    0.025530 *  0.887980 *  0.962580 *   0.00000    1.000000    
    268 C     c    0.309220 *  0.936350 *  0.487970 *   0.00000    1.000000    
    269 C     c    0.243890 *  0.548420 *  0.800920 *   0.00000    1.000000    
    270 C     c    0.477960 *  0.919990 *  0.457770 *   0.00000    1.000000    
    271 C     c    0.712640 *  0.558450 *  0.398030 *   0.00000    1.000000    
    272 C     c    0.888940 *  0.033690 *  0.875980 *   0.00000    1.000000    
    273 C     c    0.474140 *  0.273290 *  0.729310 *   0.00000    1.000000    
    274 C     c    0.681270 *  0.596620 *  0.560000 *   0.00000    1.000000    
    275 C     c    0.153590 *  0.262740 *  0.630210 *   0.00000    1.000000    
    276 C     c    0.159000 *  0.489860 *  0.647590 *   0.00000    1.000000    
    277 C     c    0.850940 *  0.599030 *  0.129450 *   0.00000    1.000000    
    278 C     c    0.798200 *  0.397490 *  0.389780 *   0.00000    1.000000    
    279 C     c    0.552970 *  0.159760 *  0.367760 *   0.00000    1.000000    
    280 C     c    0.411070 *  0.373760 *  0.957480 *   0.00000    1.000000    
    281 C     c    0.795470 *  0.009050 *  0.931600 *   0.00000    1.000000    
    282 C     c    0.055570 *  0.695930 *  0.911140 *   0.00000    1.000000    
    283 C     c    0.503390 *  0.045960 *  0.280460 *   0.00000    1.000000    
    284 C     c    0.100540 *  0.159000 *  0.752660 *   0.00000    1.000000    
    285 C     c    0.249050 *  0.154600 *  0.040330 *   0.00000    1.000000    
    286 C     c    0.602200 *  0.287700 *  0.590500 *   0.00000    1.000000    
    287 C     c    0.272110 *  0.003270 *  0.670570 *   0.00000    1.000000    
    288 C     c    0.274050 *  0.962000 *  0.294150 *   0.00000    1.000000    
    289 C     c    0.599920 *  0.910170 *  0.329510 *   0.00000    1.000000    
    290 C     c    0.004170 *  0.068130 *  0.215540 *   0.00000    1.000000    
    291 C     c    0.943220 *  0.347510 *  0.128480 *   0.00000    1.000000    
    292 C     c    0.573530 *  0.977430 *  0.252850 *   0.00000    1.000000    
    293 C     c    0.408750 *  0.108590 *  0.441610 *   0.00000    1.000000    
    294 C     c    0.288410 *  0.626760 *  0.191000 *   0.00000    1.000000    
    295 C     c    0.859020 *  0.213240 *  0.700100 *   0.00000    1.000000    
    296 C     c    0.102400 *  0.706230 *  0.450850 *   0.00000    1.000000    
    297 C     c    0.211020 *  0.011250 *  0.873330 *   0.00000    1.000000    
    298 C     c    0.416770 *  0.397230 *  0.133420 *   0.00000    1.000000    
    299 C     c    0.385350 *  0.874920 *  0.713620 *   0.00000    1.000000    
    300 C     c    0.569390 *  0.354160 *  0.049600 *   0.00000    1.000000    
    301 C     c    0.802060 *  0.697380 *  0.981160 *   0.00000    1.000000    
    302 C     c    0.718740 *  0.748220 *  0.220710 *   0.00000    1.000000    
    303 C     c    0.092480 *  0.343050 *  0.601340 *   0.00000    1.000000    
    304 C     c    0.362220 *  0.211570 *  0.987490 *   0.00000    1.000000    
    305 C     c    0.523140 *  0.828460 *  0.622610 *   0.00000    1.000000    
    306 C     c    0.192590 *  0.648100 *  0.054990 *   0.00000    1.000000    
    307 C     c    0.760860 *  0.856730 *  0.046650 *   0.00000    1.000000    
    308 C     c    0.394380 *  0.842750 *  0.270120 *   0.00000    1.000000    
    309 C     c    0.713750 *  0.222090 *  0.110800 *   0.00000    1.000000    
    310 C     c    0.049940 *  0.650630 *  0.612260 *   0.00000    1.000000    
    311 C     c    0.657360 *  0.587370 *  0.144200 *   0.00000    1.000000    
    312 C     c    0.009860 *  0.979330 *  0.268830 *   0.00000    1.000000    
    313 C     c    0.934180 *  0.879270 *  0.386680 *   0.00000    1.000000    
    314 C     c    0.366290 *  0.922010 *  0.327000 *   0.00000    1.000000    
    315 C     c    0.745120 *  0.355460 *  0.240060 *   0.00000    1.000000    
    316 C     c    0.347110 *  0.525420 *  0.399210 *   0.00000    1.000000    
    317 C     c    0.452200 *  0.858310 *  0.548700 *   0.00000    1.000000    
    318 C     c    0.042980 *  0.354390 *  0.454670 *   0.00000    1.000000    
    319 C     c    0.789150 *  0.490020 *  0.431920 *   0.00000    1.000000    
    320 C     c    0.861890 *  0.039620 *  0.366690 *   0.00000    1.000000    
    321 C     c    0.701890 *  0.169220 *  0.286030 *   0.00000    1.000000    
    322 C     c    0.203820 *  0.167830 *  0.942370 *   0.00000    1.000000    
    323 C     c    0.331320 *  0.852480 *  0.086240 *   0.00000    1.000000    
    324 C     c    0.611270 *  0.929300 *  0.090310 *   0.00000    1.000000    
    325 C     c    0.745650 *  0.648940 *  0.824290 *   0.00000    1.000000    
    326 C     c    0.767240 *  0.064510 *  0.097820 *   0.00000    1.000000    
    327 C     c    0.161090 *  0.019380 *  0.487440 *   0.00000    1.000000    
    328 C     c    0.211450 *  0.719900 *  0.480060 *   0.00000    1.000000    
    329 C     c    0.403070 *  0.350110 *  0.307180 *   0.00000    1.000000    
    330 C     c    0.322240 *  0.746840 *  0.079310 *   0.00000    1.000000    
    331 C     c    0.683820 *  0.633120 *  0.647090 *   0.00000    1.000000    
    332 C     c    0.564790 *  0.553500 *  0.096360 *   0.00000    1.000000    
    333 C     c    0.490870 *  0.031020 *  0.464760 *   0.00000    1.000000    
    334 C     c    0.709650 *  0.066860 *  0.564660 *   0.00000    1.000000    
    335 C     c    0.954820 *  0.489740 *  0.403590 *   0.00000    1.000000    
    336 C     c    0.555050 *  0.218720 *  0.539570 *   0.00000    1.000000    
    337 C     c    0.251030 *  0.783210 *  0.406670 *   0.00000    1.000000    
    338 C     c    0.969500 *  0.829970 *  0.552690 *   0.00000    1.000000    
    339 C     c    0.900290 *  0.657160 *  0.972750 *   0.00000    1.000000    
    340 C     c    0.700570 *  0.640000 *  0.470370 *   0.00000    1.000000    
    341 C     c    0.662350 *  0.748260 *  0.476960 *   0.00000    1.000000    
    342 C     c    0.941760 *  0.442630 *  0.583130 *   0.00000    1.000000    
    343 C     c    0.477870 *  0.404290 *  0.357770 *   0.00000    1.000000    
    344 C     c    0.267060 *  0.185660 *  0.742060 *   0.00000    1.000000    
    345 C     c    0.965680 *  0.024470 *  0.041570 *   0.00000    1.000000    
    346 C     c    0.212470 *  0.313370 *  0.699570 *   0.00000    1.000000    
    347 C     c    0.150840 *  0.426950 *  0.563140 *   0.00000    1.000000    
    348 C     c    0.683920 *  0.754460 *  0.090190 *   0.00000    1.000000    
    349 C     c    0.449760 *  0.352510 *  0.649290 *   0.00000    1.000000    
    350 C     c    0.944690 *  0.978660 *  0.352980 *   0.00000    1.000000    
    351 C     c    0.104520 *  0.608640 *  0.051760 *   0.00000    1.000000    
    352 C     c    0.316900 *  0.200180 *  0.655330 *   0.00000    1.000000    
    353 C     c    0.368040 *  0.268570 *  0.516520 *   0.00000    1.000000    
    354 C     c    0.163880 *  0.267680 *  0.948050 *   0.00000    1.000000    
    355 C     c    0.573620 *  0.756660 *  0.417850 *   0.00000    1.000000    
    356 C     c    0.724110 *  0.302250 *  0.702380 *   0.00000    1.000000    
    357 C     c    0.733100 *  0.849780 *  0.764160 *   0.00000    1.000000    
    358 C     c    0.569050 *  0.066960 *  0.406780 *   0.00000    1.000000    
    359 C     c    0.374450 *  0.412350 *  0.695430 *   0.00000    1.000000    
    360 C     c    0.488880 *  0.055110 *  0.564650 *   0.00000    1.000000    
    361 C     c    0.550420 *  0.865140 *  0.399530 *   0.00000    1.000000    
    362 C     c    0.809900 *  0.847900 *  0.692350 *   0.00000    1.000000    
    363 C     c    0.974140 *  0.734520 *  0.598240 *   0.00000    1.000000    
    364 C     c    0.854070 *  0.320250 *  0.516840 *   0.00000    1.000000    
    365 C     c    0.644380 *  0.688820 *  0.169720 *   0.00000    1.000000    
    366 C     c    0.328340 *  0.485700 *  0.558600 *   0.00000    1.000000    
    367 C     c    0.605060 *  0.035350 *  0.073000 *   0.00000    1.000000    
    368 C     c    0.143090 *  0.670000 *  0.676890 *   0.00000    1.000000    
    369 C     c    0.262490 *  0.157100 *  0.580100 *   0.00000    1.000000    
    370 C     c    0.733790 *  0.465580 *  0.038130 *   0.00000    1.000000    
    371 C     c    0.848150 *  0.591900 *  0.309820 *   0.00000    1.000000    
    372 C     c    0.150630 *  0.564620 *  0.896510 *   0.00000    1.000000    
    373 C     c    0.131390 *  0.461750 *  0.881680 *   0.00000    1.000000    
    374 C     c    0.259360 *  0.848450 *  0.910310 *   0.00000    1.000000    
    375 C     c    0.140190 *  0.378680 *  0.290530 *   0.00000    1.000000    
    376 C     c    0.086310 *  0.192020 *  0.664080 *   0.00000    1.000000    
    377 C     c    0.252860 *  0.689200 *  0.118690 *   0.00000    1.000000    
    378 C     c    0.298070 *  0.579530 *  0.718230 *   0.00000    1.000000    
    379 C     c    0.053920 *  0.280840 *  0.804760 *   0.00000    1.000000    
    380 C     c    0.022100 *  0.525690 *  0.334360 *   0.00000    1.000000    
    381 C     c    0.959050 *  0.379980 *  0.388930 *   0.00000    1.000000    
    382 C     c    0.837660 *  0.700330 *  0.309280 *   0.00000    1.000000    
    383 C     c    0.265390 *  0.756500 *  0.566020 *   0.00000    1.000000    
    384 C     c    0.883840 *  0.969910 *  0.994590 *   0.00000    1.000000    
    385 C     c    0.315000 *  0.056940 *  0.152310 *   0.00000    1.000000    
    386 C     c    0.402910 *  0.258410 *  0.615360 *   0.00000    1.000000    
    387 C     c    0.363010 *  0.865980 *  0.913880 *   0.00000    1.000000    
    388 C     c    0.739190 *  0.595700 *  0.303230 *   0.00000    1.000000    
    389 C     c    0.240650 *  0.334730 *  0.001320 *   0.00000    1.000000    
    390 C     c    0.699400 *  0.994540 *  0.481060 *   0.00000    1.000000    
    391 C     c    0.054680 *  0.172200 *  0.018850 *   0.00000    1.000000    
    392 C     c    0.125250 *  0.832070 *  0.612780 *   0.00000    1.000000    
    393 C     c    0.478160 *  0.767660 *  0.800990 *   0.00000    1.000000    
    394 C     c    0.069970 *  0.574920 *  0.763270 *   0.00000    1.000000    
    395 C     c    0.802000 *  0.995170 *  0.447090 *   0.00000    1.000000    
    396 C     c    0.926810 *  0.626220 *  0.478820 *   0.00000    1.000000    
    397 C     c    0.008790 *  0.422610 *  0.000160 *   0.00000    1.000000    
    398 C     c    0.097370 *  0.334660 *  0.087060 *   0.00000    1.000000    
    399 C     c    0.191560 *  0.513620 *  0.337280 *   0.00000    1.000000    
    400 C     c    0.413580 *  0.608530 *  0.636300 *   0.00000    1.000000    
    401 C     c    0.349980 *  0.798720 *  0.427450 *   0.00000    1.000000    
    402 C     c    0.434020 *  0.474220 *  0.529110 *   0.00000    1.000000    
    403 C     c    0.476810 *  0.683290 *  0.178550 *   0.00000    1.000000    
    404 C     c    0.939250 *  0.129630 *  0.485220 *   0.00000    1.000000    
    405 C     c    0.420060 *  0.275100 *  0.924600 *   0.00000    1.000000    
    406 C     c    0.209190 *  0.450600 *  0.808710 *   0.00000    1.000000    
    407 C     c    0.930930 *  0.583180 *  0.055800 *   0.00000    1.000000    
    408 C     c    0.608740 *  0.071360 *  0.975920 *   0.00000    1.000000    
    409 C     c    0.698230 *  0.847130 *  0.221960 *   0.00000    1.000000    
    410 C     c    0.666870 *  0.220660 *  0.011130 *   0.00000    1.000000    
    411 C     c    0.981980 *  0.740680 *  0.708910 *   0.00000    1.000000    
    412 C     c    0.281210 *  0.276070 *  0.375900 *   0.00000    1.000000    
    413 C     c    0.902990 *  0.563140 *  0.225710 *   0.00000    1.000000    
    414 C     c    0.527510 *  0.457710 *  0.270470 *   0.00000    1.000000    
    415 C     c    0.026690 *  0.144570 *  0.611720 *   0.00000    1.000000    
    416 C     c    0.142000 *  0.084590 *  0.922530 *   0.00000    1.000000    
    417 C     c    0.142310 *  0.119770 *  0.052340 *   0.00000    1.000000    
    418 C     c    0.329750 *  0.105600 *  0.517830 *   0.00000    1.000000    
    419 C     c    0.757700 *  0.162370 *  0.536750 *   0.00000    1.000000    
    420 C     c    0.819850 *  0.950420 *  0.224970 *   0.00000    1.000000    
    421 C     c    0.460970 *  0.567730 *  0.961820 *   0.00000    1.000000    
    422 C     c    0.568590 *  0.313600 *  0.858520 *   0.00000    1.000000    
    423 C     c    0.003650 *  0.978710 *  0.446280 *   0.00000    1.000000    
    424 C     c    0.159610 *  0.059590 *  0.260680 *   0.00000    1.000000    
    425 C     c    0.099450 *  0.966150 *  0.737740 *   0.00000    1.000000    
    426 C     c    0.282770 *  0.386090 *  0.841410 *   0.00000    1.000000    
    427 C     c    0.496970 *  0.792100 *  0.256260 *   0.00000    1.000000    
    428 C     c    0.416460 *  0.770710 *  0.508220 *   0.00000    1.000000    
    429 C     c    0.525820 *  0.495340 *  0.013630 *   0.00000    1.000000    
    430 C     c    0.310700 *  0.230950 *  0.822740 *   0.00000    1.000000    
    431 C     c    0.576610 *  0.463200 *  0.771230 *   0.00000    1.000000    
    432 C     c    0.625940 *  0.314270 *  0.687910 *   0.00000    1.000000    
    433 C     c    0.601120 *  0.643930 *  0.935550 *   0.00000    1.000000    
    434 C     c    0.875040 *  0.551360 *  0.407590 *   0.00000    1.000000    
    435 C     c    0.572920 *  0.266070 *  0.765980 *   0.00000    1.000000    
    436 C     c    0.917430 *  0.646540 *  0.816110 *   0.00000    1.000000    
    437 C     c    0.836860 *  0.158920 *  0.610110 *   0.00000    1.000000    
    438 C     c    0.683410 *  0.137200 *  0.715960 *   0.00000    1.000000    
    439 C     c    0.600700 *  0.686110 *  0.335830 *   0.00000    1.000000    
    440 C     c    0.608080 *  0.166010 *  0.786600 *   0.00000    1.000000    
    441 C     c    0.712470 *  0.067370 *  0.307410 *   0.00000    1.000000    
    442 C     c    0.510580 *  0.193970 *  0.090990 *   0.00000    1.000000    
    443 C     c    0.554930 *  0.301110 *  0.228530 *   0.00000    1.000000    
    444 C     c    0.996970 *  0.728760 *  0.179090 *   0.00000    1.000000    
    445 C     c    0.638800 *  0.090200 *  0.635240 *   0.00000    1.000000    
    446 C     c    0.910970 *  0.331040 *  0.209730 *   0.00000    1.000000    
    447 C     c    0.055250 *  0.961530 *  0.038460 *   0.00000    1.000000    
    448 C     c    0.502200 *  0.651070 *  0.919800 *   0.00000    1.000000    
    449 C     c    0.382700 *  0.110090 *  0.856450 *   0.00000    1.000000    
    450 C     c    0.313130 *  0.143400 *  0.213510 *   0.00000    1.000000    
    451 C     c    0.225310 *  0.919900 *  0.723020 *   0.00000    1.000000    
    452 C     c    0.380270 *  0.618880 *  0.532220 *   0.00000    1.000000    
    453 C     c    0.996000 *  0.453010 *  0.495850 *   0.00000    1.000000    
    454 C     c    0.490470 *  0.767570 *  0.123540 *   0.00000    1.000000    
    455 C     c    0.058990 *  0.309930 *  0.273160 *   0.00000    1.000000    
    456 C     c    0.621000 *  0.416700 *  0.690450 *   0.00000    1.000000    
    457 C     c    0.644530 *  0.411990 *  0.994450 *   0.00000    1.000000    
    458 C     c    0.406180 *  0.711440 *  0.387930 *   0.00000    1.000000    
    459 C     c    0.090750 *  0.819160 *  0.057630 *   0.00000    1.000000    
    460 C     c    0.288130 *  0.256170 *  0.054060 *   0.00000    1.000000    
    461 C     c    0.846010 *  0.942700 *  0.781610 *   0.00000    1.000000    
    462 C     c    0.398360 *  0.496340 *  0.167140 *   0.00000    1.000000    
    463 C     c    0.377860 *  0.899660 *  0.423960 *   0.00000    1.000000    
    464 C     c    0.996380 *  0.650210 *  0.751790 *   0.00000    1.000000    
    465 C     c    0.406220 *  0.008790 *  0.284820 *   0.00000    1.000000    
    466 C     c    0.564760 *  0.249250 *  0.018500 *   0.00000    1.000000    
    467 C     c    0.390780 *  0.609110 *  0.816740 *   0.00000    1.000000    
    468 C     c    0.731120 *  0.573810 *  0.902680 *   0.00000    1.000000    
    469 C     c    0.538350 *  0.855810 *  0.882630 *   0.00000    1.000000    
    470 C     c    0.852640 *  0.711890 *  0.131450 *   0.00000    1.000000    
    471 C     c    0.885020 *  0.463790 *  0.754200 *   0.00000    1.000000    
    472 C     c    0.277220 *  0.456400 *  0.358800 *   0.00000    1.000000    
    473 C     c    0.687250 *  0.132030 *  0.956410 *   0.00000    1.000000    
    474 C     c    0.927090 *  0.338200 *  0.586800 *   0.00000    1.000000    
    475 C     c    0.794470 *  0.210360 *  0.285700 *   0.00000    1.000000    
    476 C     c    0.082400 *  0.346110 *  0.716320 *   0.00000    1.000000    
    477 C     c    0.469510 *  0.400640 *  0.042020 *   0.00000    1.000000    
    478 C     c    0.209620 *  0.758800 *  0.937810 *   0.00000    1.000000    
    479 C     c    0.106270 *  0.478730 *  0.374700 *   0.00000    1.000000    
    480 C     c    0.991510 *  0.190690 *  0.536830 *   0.00000    1.000000    
    481 C     c    0.556410 *  0.633400 *  0.754160 *   0.00000    1.000000    
    482 C     c    0.483090 *  0.664870 *  0.817530 *   0.00000    1.000000    
    483 C     c    0.388380 *  0.101820 *  0.761100 *   0.00000    1.000000    
    484 C     c    0.917700 *  0.170730 *  0.785930 *   0.00000    1.000000    
    485 C     c    0.378810 *  0.885740 *  0.169750 *   0.00000    1.000000    
    486 C     c    0.182850 *  0.890720 *  0.172260 *   0.00000    1.000000    
    487 C     c    0.097980 *  0.781040 *  0.304900 *   0.00000    1.000000    
    488 C     c    0.660780 *  0.357510 *  0.898940 *   0.00000    1.000000    
    489 C     c    0.002450 *  0.218380 *  0.173130 *   0.00000    1.000000    
    490 C     c    0.012250 *  0.419410 *  0.747210 *   0.00000    1.000000    
    491 C     c    0.520710 *  0.628730 *  0.652660 *   0.00000    1.000000    
    492 C     c    0.673410 *  0.498430 *  0.547210 *   0.00000    1.000000    
    493 C     c    0.802580 *  0.729470 *  0.572440 *   0.00000    1.000000    
    494 C     c    0.190740 *  0.113820 *  0.743190 *   0.00000    1.000000    
    495 C     c    0.852420 *  0.912560 *  0.069920 *   0.00000    1.000000    
    496 C     c    0.782290 *  0.962440 *  0.128120 *   0.00000    1.000000    
    497 C     c    0.861720 *  0.849100 *  0.233580 *   0.00000    1.000000    
    498 C     c    0.417250 *  0.220610 *  0.439220 *   0.00000    1.000000    
    499 C     c    0.213120 *  0.615620 *  0.458690 *   0.00000    1.000000    
    500 C     c    0.101240 *  0.475350 *  0.489600 *   0.00000    1.000000    
    501 C     c    0.788840 *  0.701170 *  0.477790 *   0.00000    1.000000    
    502 C     c    0.911930 *  0.900310 *  0.707630 *   0.00000    1.000000    
    503 C     c    0.323080 *  0.408040 *  0.280570 *   0.00000    1.000000    
    504 C     c    0.154910 *  0.209960 *  0.286300 *   0.00000    1.000000    
    505 C     c    0.946910 *  0.084100 *  0.951040 *   0.00000    1.000000    
    506 C     c    0.805990 *  0.454000 *  0.686160 *   0.00000    1.000000    
    507 C     c    0.397910 *  0.713290 *  0.673440 *   0.00000    1.000000    
    508 C     c    0.179840 *  0.858860 *  0.406710 *   0.00000    1.000000    
    509 C     c    0.043110 *  0.880590 *  0.606240 *   0.00000    1.000000    
    510 C     c    0.231300 *  0.301350 *  0.801890 *   0.00000    1.000000    
    511 C     c    0.872840 *  0.589510 *  0.561100 *   0.00000    1.000000    
    512 C     c    0.089070    0.037610    0.417460     0.00000    1.000000    
--------------------------------------------------------------------------------


  Constraints : 

--------------------------------------------------------------------------------
  Constraint no.      Unconstrained     Constrained    Coefficient    Offset
                         Variable         Variable
--------------------------------------------------------------------------------
           1              Strain 1        Strain 2       1.00000      0.0000
           2              Strain 1        Strain 3       1.00000      0.0000
--------------------------------------------------------------------------------

  Brillouin zone sampling points :

--------------------------------------------------------------------------------
  Point number          x          y          z            Weight
--------------------------------------------------------------------------------
        1           0.000000   0.000000   0.000000     1.00000000
--------------------------------------------------------------------------------


********************************************************************************
*  General input information                                                   *
********************************************************************************

  Species output for all configurations : 

--------------------------------------------------------------------------------
  Species    Type    Atomic    Atomic    Charge       Radii (Angs)     Library
                     Number     Mass       (e)     Cova   Ionic  VDW   Symbol
--------------------------------------------------------------------------------
    C        Core        6      12.01   0.000000   0.770  0.000  1.530          
--------------------------------------------------------------------------------


  Lattice summation method               =    Ewald          (3-D)
                                         =    Parry          (2-D)
                                         =    Saunders et al (1-D)
  Accuracy factor for lattice sums       =   12.000


  Time limit = Infinity

  Maximum range for interatomic potentials =    100000.000000 Angstroms

  Brenner et al 2002 potential to be used with explicit splines for P


********************************************************************************
*  Output for configuration   1                                                *
********************************************************************************


  Components of energy : 

--------------------------------------------------------------------------------
  Interatomic potentials     =           0.00000000 eV    
  Brenner potentials         =       -3367.82842767 eV    
  Monopole - monopole (real) =           0.00000000 eV    
  Monopole - monopole (recip)=           0.00000000 eV    
  Monopole - monopole (total)=           0.00000000 eV    
--------------------------------------------------------------------------------
  Total lattice energy       =       -3367.82842767 eV    
--------------------------------------------------------------------------------
  Total lattice energy       =         -324943.9613 kJ/(mole unit cells)
--------------------------------------------------------------------------------


  Number of variables =     1534

  Maximum number of calculations  =          2000
  Maximum Hessian update interval =            10
  Maximum step size               =   1.000000000
  Maximum parameter tolerance     =   0.000010000
  Maximum function  tolerance     =   0.000010000
  Maximum gradient  tolerance     =   0.001000000
  Maximum gradient  component     =   0.010000000

  Symmetry not applied to optimisation

  Cell parameters to be optimised using strains

  Conjugate gradient optimiser to be used

  General 2-D hessian to be used

  Start of bulk optimisation :

  Cycle:      0 Energy:     -3367.828428  Gnorm:      0.002130  CPU:    1.825
  Cycle:      1 Energy:     -3367.828469  Gnorm:      0.001259  CPU:    1.854
  Cycle:      2 Energy:     -3367.828480  Gnorm:      0.000876  CPU:    1.878
  Cycle:      3 Energy:     -3367.828482  Gnorm:      0.000692  CPU:    1.901
  Cycle:      4 Energy:     -3367.828483  Gnorm:      0.000650  CPU:    1.923
  Cycle:      5 Energy:     -3367.828484  Gnorm:      0.000618  CPU:    1.945
  Cycle:      6 Energy:     -3367.828484  Gnorm:      0.000598  CPU:    1.967
  Cycle:      7 Energy:     -3367.828484  Gnorm:      0.000578  CPU:    1.989
  Cycle:      8 Energy:     -3367.828484  Gnorm:      0.000560  CPU:    2.011
  Cycle:      9 Energy:     -3367.828484  Gnorm:      0.000542  CPU:    2.033
  Cycle:     10 Energy:     -3367.828484  Gnorm:      0.000534  CPU:    2.055
  Cycle:     11 Energy:     -3367.828484  Gnorm:      0.000534  CPU:    2.076
  Cycle:     12 Energy:     -3367.828484  Gnorm:      0.000536  CPU:    2.098
  Cycle:     13 Energy:     -3367.828484  Gnorm:      0.000536  CPU:    2.120


  **** Optimisation achieved ****


  Final energy =   -3367.82848446 eV
  Final Gnorm  =       0.00053606

  Components of energy : 

--------------------------------------------------------------------------------
  Interatomic potentials     =           0.00000000 eV    
  Brenner potentials         =       -3367.82848446 eV    
  Monopole - monopole (real) =           0.00000000 eV    
  Monopole - monopole (recip)=           0.00000000 eV    
  Monopole - monopole (total)=           0.00000000 eV    
--------------------------------------------------------------------------------
  Total lattice energy       =       -3367.82848446 eV    
--------------------------------------------------------------------------------
  Total lattice energy       =         -324943.9668 kJ/(mole unit cells)
--------------------------------------------------------------------------------

  Final fractional coordinates of atoms :

--------------------------------------------------------------------------------
   No.  Atomic        x           y          z          Radius
        Label       (Frac)      (Frac)     (Frac)       (Angs) 
--------------------------------------------------------------------------------
     1  C     c     0.308751    0.396857    0.174292    0.000000
     2  C     c     0.924358    0.014678    0.698932    0.000000
     3  C     c     0.823331    0.279699    0.213940    0.000000
     4  C     c     0.335829    0.536529    0.053872    0.000000
     5  C     c     0.695940    0.971992    0.886902    0.000000
     6  C     c     0.271061    0.308532    0.506600    0.000000
     7  C     c     0.108669    0.990119    0.318191    0.000000
     8  C     c     0.223837    0.965791    0.026299    0.000000
     9  C     c     0.870328    0.215999    0.875669    0.000000
    10  C     c     0.082131    0.901300    0.130329    0.000000
    11  C     c     0.075170    0.603420    0.951939    0.000000
    12  C     c     0.402409    0.282560    0.811122    0.000000
    13  C     c     0.522450    0.090837    0.116820    0.000000
    14  C     c     0.042940    0.488910    0.821238    0.000000
    15  C     c     0.082110    0.147159    0.410820    0.000000
    16  C     c     0.071799    0.553580    0.659768    0.000000
    17  C     c     0.884970    0.135248    0.408790    0.000000
    18  C     c     0.832691    0.459192    0.977921    0.000000
    19  C     c     0.604309    0.341120    0.145839    0.000000
    20  C     c     0.690111    0.878251    0.313651    0.000000
    21  C     c     0.930181    0.813968    0.307209    0.000000
    22  C     c     0.843830    0.490820    0.590500    0.000000
    23  C     c     0.531260    0.766158    0.033761    0.000000
    24  C     c     0.654279    0.785808    0.745071    0.000000
    25  C     c     0.813012    0.044889    0.275551    0.000000
    26  C     c     0.267281    0.038721    0.464501    0.000000
    27  C     c     0.866909    0.868068    0.533481    0.000000
    28  C     c     0.363680    0.516078    0.662941    0.000000
    29  C     c     0.442232    0.803389    0.896887    0.000000
    30  C     c     0.187550    0.015270    0.775040    0.000000
    31  C     c     0.866800    0.156691    0.968382    0.000000
    32  C     c     0.766988    0.739699    0.380799    0.000000
    33  C     c     0.995250    0.043512    0.619619    0.000000
    34  C     c     0.019361    0.174391    0.819720    0.000000
    35  C     c     0.806001    0.590450    0.751240    0.000000
    36  C     c     0.942500    0.074178    0.133430    0.000000
    37  C     c     0.213232    0.086820    0.640989    0.000000
    38  C     c     0.770101    0.842132    0.863151    0.000000
    39  C     c     0.539352    0.935732    0.163280    0.000000
    40  C     c     0.544809    0.088560    0.816270    0.000000
    41  C     c     0.588861    0.015188    0.889691    0.000000
    42  C     c     0.107371    0.109041    0.206799    0.000000
    43  C     c     0.270651    0.649731    0.296410    0.000000
    44  C     c     0.612248    0.471539    0.464419    0.000000
    45  C     c     0.134899    0.193430    0.473319    0.000000
    46  C     c     0.601914    0.303816    0.324459    0.000000
    47  C     c     0.970630    0.370949    0.284702    0.000000
    48  C     c     0.442201    0.480361    0.421411    0.000000
    49  C     c     0.785498    0.751640    0.064019    0.000000
    50  C     c     0.592701    0.458802    0.603729    0.000000
    51  C     c     0.096050    0.870081    0.882790    0.000000
    52  C     c     0.690804    0.355571    0.329063    0.000000
    53  C     c     0.702681    0.692330    0.310639    0.000000
    54  C     c     0.196670    0.904111    0.619978    0.000000
    55  C     c     0.716700    0.423132    0.836992    0.000000
    56  C     c     0.142149    0.451989    0.211202    0.000000
    57  C     c     0.111100    0.431809    0.977652    0.000000
    58  C     c     0.488779    0.612510    0.504011    0.000000
    59  C     c     0.756290    0.457701    0.202509    0.000000
    60  C     c     0.226361    0.187528    0.362481    0.000000
    61  C     c     0.159010    0.197230    0.174839    0.000000
    62  C     c     0.255152    0.972121    0.186859    0.000000
    63  C     c     0.532740    0.540249    0.440259    0.000000
    64  C     c     0.758465    0.289100    0.389389    0.000000
    65  C     c     0.851122    0.529804    0.830291    0.000000
    66  C     c     0.273321    0.305303    0.209540    0.000000
    67  C     c     0.069739    0.976098    0.637980    0.000000
    68  C     c     0.377039    0.387791    0.795651    0.000000
    69  C     c     0.276631    0.096842    0.380491    0.000000
    70  C     c     0.552020    0.200398    0.195059    0.000000
    71  C     c     0.258532    0.578168    0.908621    0.000000
    72  C     c     0.305239    0.171500    0.908170    0.000000
    73  C     c     0.370781    0.914459    0.008401    0.000000
    74  C     c     0.397202    0.528860    0.890001    0.000000
    75  C     c     0.863109    0.067738    0.627428    0.000000
    76  C     c     0.928398    0.493959    0.993309    0.000000
    77  C     c     0.631629    0.557539    0.890353    0.000000
    78  C     c     0.996169    0.790300    0.015191    0.000000
    79  C     c     0.557411    0.727061    0.622091    0.000000
    80  C     c     0.759330    0.218107    0.742151    0.000000
    81  C     c     0.179849    0.397650    0.058462    0.000000
    82  C     c     0.588329    0.475040    0.929869    0.000000
    83  C     c     0.700482    0.895360    0.130950    0.000000
    84  C     c     0.562659    0.709080    0.241669    0.000000
    85  C     c     0.914730    0.584269    0.894749    0.000000
    86  C     c     0.888710    0.310960    0.682761    0.000000
    87  C     c     0.461518    0.525174    0.230071    0.000000
    88  C     c     0.182980    0.915341    0.318880    0.000000
    89  C     c     0.821570    0.749328    0.220932    0.000000
    90  C     c     0.823939    0.366469    0.025221    0.000000
    91  C     c     0.766592    0.392869    0.112359    0.000000
    92  C     c     0.461490    0.734570    0.967661    0.000000
    93  C     c     0.617090    0.701331    0.022330    0.000000
    94  C     c     0.489431    0.605187    0.117799    0.000000
    95  C     c     0.376269    0.893599    0.608769    0.000000
    96  C     c     0.494059    0.075672    0.985398    0.000000
    97  C     c     0.175609    0.810061    0.026419    0.000000
    98  C     c     0.766238    0.461050    0.529110    0.000000
    99  C     c     0.395421    0.181032    0.279978    0.000000
   100  C     c     0.201889    0.922169    0.479178    0.000000
   101  C     c     0.396941    0.135947    0.672452    0.000000
   102  C     c     0.777240    0.093651    0.994701    0.000000
   103  C     c     0.481781    0.134329    0.894422    0.000000
   104  C     c     0.593181    0.935490    0.750250    0.000000
   105  C     c     0.763293    0.359730    0.549868    0.000000
   106  C     c     0.160701    0.006101    0.591222    0.000000
   107  C     c     0.748942    0.566160    0.086820    0.000000
   108  C     c     0.539161    0.333310    0.405490    0.000000
   109  C     c     0.920102    0.777992    0.845522    0.000000
   110  C     c     0.045589    0.907920    0.799541    0.000000
   111  C     c     0.167587    0.746359    0.608502    0.000000
   112  C     c     0.953692    0.959051    0.822490    0.000000
   113  C     c     0.377439    0.093188    0.338962    0.000000
   114  C     c     0.166370    0.718390    0.779019    0.000000
   115  C     c     0.866119    0.605360    0.668862    0.000000
   116  C     c     0.840219    0.210441    0.375258    0.000000
   117  C     c     0.119918    0.577482    0.488200    0.000000
   118  C     c     0.086940    0.809600    0.415929    0.000000
   119  C     c     0.296940    0.530180    0.151259    0.000000
   120  C     c     0.927030    0.361581    0.771579    0.000000
   121  C     c     0.857701    0.971382    0.533300    0.000000
   122  C     c     0.519240    0.240170    0.922821    0.000000
   123  C     c     0.489221    0.707309    0.458091    0.000000
   124  C     c     0.451419    0.795343    0.702641    0.000000
   125  C     c     0.816791    0.197812    0.133280    0.000000
   126  C     c     0.585060    0.915560    0.601759    0.000000
   127  C     c     0.334219    0.676668    0.747449    0.000000
   128  C     c     0.674611    0.318401    0.519170    0.000000
   129  C     c     0.215300    0.302421    0.292230    0.000000
   130  C     c     0.648050    0.720179    0.659538    0.000000
   131  C     c     0.385961    0.699940    0.027649    0.000000
   132  C     c     0.707411    0.458491    0.737010    0.000000
   133  C     c     0.007390    0.897039    0.200690    0.000000
   134  C     c     0.867278    0.865896    0.864522    0.000000
   135  C     c     0.875591    0.074662    0.779490    0.000000
   136  C     c     0.202901    0.584189    0.671089    0.000000
   137  C     c     0.975361    0.167812    0.087769    0.000000
   138  C     c     0.459218    0.971520    0.012921    0.000000
   139  C     c     0.184572    0.821141    0.260680    0.000000
   140  C     c     0.538550    0.419811    0.855811    0.000000
   141  C     c     0.472331    0.000622    0.117329    0.000000
   142  C     c     0.156040    0.614509    0.799388    0.000000
   143  C     c     0.690280    0.946900    0.781020    0.000000
   144  C     c     0.500771    0.152353    0.273300    0.000000
   145  C     c     0.263010    0.218991    0.157863    0.000000
   146  C     c     0.012621    0.295998    0.543451    0.000000
   147  C     c     0.194201    0.614100    0.349859    0.000000
   148  C     c     0.259199    0.071559    0.277698    0.000000
   149  C     c     0.089141    0.278191    0.170098    0.000000
   150  C     c     0.514533    0.535029    0.585568    0.000000
   151  C     c     0.018750    0.628750    0.312630    0.000000
   152  C     c     0.028800    0.575501    0.115759    0.000000
   153  C     c     0.711333    0.877791    0.950956    0.000000
   154  C     c     0.577400    0.586620    0.357040    0.000000
   155  C     c     0.360550    0.750152    0.293551    0.000000
   156  C     c     0.652610    0.725002    0.894111    0.000000
   157  C     c     0.423209    0.140889    0.040259    0.000000
   158  C     c     0.874887    0.344371    0.427361    0.000000
   159  C     c     0.254860    0.756589    0.305278    0.000000
   160  C     c     0.651600    0.910050    0.530331    0.000000
   161  C     c     0.146081    0.290139    0.852302    0.000000
   162  C     c     0.580130    0.376391    0.491681    0.000000
   163  C     c     0.751899    0.751728    0.910781    0.000000
   164  C     c     0.012919    0.864350    0.457542    0.000000
   165  C     c     0.889510    0.718307    0.432739    0.000000
   166  C     c     0.359661    0.619010    0.346927    0.000000
   167  C     c     0.313651    0.006801    0.997910    0.000000
   168  C     c     0.378810    0.260228    0.347491    0.000000
   169  C     c     0.507882    0.952521    0.910349    0.000000
   170  C     c     0.074830    0.274301    0.001930    0.000000
   171  C     c     0.704939    0.568340    0.724292    0.000000
   172  C     c     0.220599    0.448970    0.140957    0.000000
   173  C     c     0.700850    0.317359    0.146971    0.000000
   174  C     c     0.754640    0.845660    0.379300    0.000000
   175  C     c     0.948160    0.026601    0.524200    0.000000
   176  C     c     0.106079    0.676251    0.343581    0.000000
   177  C     c     0.394341    0.069667    0.593931    0.000000
   178  C     c     0.481793    0.856646    0.169811    0.000000
   179  C     c     0.802243    0.297400    0.959392    0.000000
   180  C     c     0.751139    0.610860    0.992049    0.000000
   181  C     c     0.264720    0.754212    0.762982    0.000000
   182  C     c     0.693371    0.534811    0.228552    0.000000
   183  C     c     0.975512    0.835981    0.762240    0.000000
   184  C     c     0.400690    0.960460    0.867931    0.000000
   185  C     c     0.017200    0.799989    0.249471    0.000000
   186  C     c     0.388757    0.991472    0.181130    0.000000
   187  C     c     0.993339    0.479171    0.662549    0.000000
   188  C     c     0.285298    0.374369    0.655369    0.000000
   189  C     c     0.995878    0.166989    0.256131    0.000000
   190  C     c     0.620117    0.834598    0.040954    0.000000
   191  C     c     0.138151    0.016980    0.014091    0.000000
   192  C     c     0.032961    0.642168    0.505260    0.000000
   193  C     c     0.669579    0.453646    0.372609    0.000000
   194  C     c     0.302999    0.396550    0.944370    0.000000
   195  C     c     0.771150    0.990930    0.728898    0.000000
   196  C     c     0.557648    0.008601    0.641190    0.000000
   197  C     c     0.841350    0.092970    0.174160    0.000000
   198  C     c     0.619131    0.818609    0.932819    0.000000
   199  C     c     0.441140    0.600835    0.278984    0.000000
   200  C     c     0.995151    0.630221    0.204030    0.000000
   201  C     c     0.238751    0.369621    0.417200    0.000000
   202  C     c     0.358627    0.715381    0.574468    0.000000
   203  C     c     0.474900    0.366880    0.227829    0.000000
   204  C     c     0.982370    0.322500    0.961391    0.000000
   205  C     c     0.659270    0.027650    0.229072    0.000000
   206  C     c     0.868759    0.764620    0.721210    0.000000
   207  C     c     0.483709    0.190210    0.659940    0.000000
   208  C     c     0.792449    0.354681    0.652192    0.000000
   209  C     c     0.853929    0.827744    0.434640    0.000000
   210  C     c     0.614679    0.507190    0.295780    0.000000
   211  C     c     0.915420    0.866699    0.138618    0.000000
   212  C     c     0.326240    0.088401    0.056882    0.000000
   213  C     c     0.412801    0.601521    0.048408    0.000000
   214  C     c     0.229870    0.663470    0.964470    0.000000
   215  C     c     0.193978    0.911312    0.894019    0.000000
   216  C     c     0.936191    0.917678    0.925741    0.000000
   217  C     c     0.232251    0.878079    0.077160    0.000000
   218  C     c     0.171070    0.416708    0.721051    0.000000
   219  C     c     0.057730    0.207250    0.326880    0.000000
   220  C     c     0.887321    0.211079    0.054128    0.000000
   221  C     c     0.519391    0.233351    0.440860    0.000000
   222  C     c     0.515790    0.007751    0.744471    0.000000
   223  C     c     0.712750    0.273400    0.928391    0.000000
   224  C     c     0.953432    0.294510    0.861109    0.000000
   225  C     c     0.424850    0.957070    0.766128    0.000000
   226  C     c     0.546841    0.135951    0.598981    0.000000
   227  C     c     0.654269    0.170261    0.188520    0.000000
   228  C     c     0.312928    0.504513    0.959360    0.000000
   229  C     c     0.317669    0.029441    0.896429    0.000000
   230  C     c     0.289479    0.841400    0.744609    0.000000
   231  C     c     0.697900    0.824639    0.527480    0.000000
   232  C     c     0.659808    0.038340    0.396450    0.000000
   233  C     c     0.834797    0.710041    0.807378    0.000000
   234  C     c     0.781881    0.484559    0.889367    0.000000
   235  C     c     0.649870    0.688581    0.790611    0.000000
   236  C     c     0.702148    0.144821    0.849221    0.000000
   237  C     c     0.046861    0.479620    0.166902    0.000000
   238  C     c     0.351739    0.989694    0.628610    0.000000
   239  C     c     0.701279    0.229211    0.462009    0.000000
   240  C     c     0.944019    0.703971    0.338319    0.000000
   241  C     c     0.436100    0.433600    0.867870    0.000000
   242  C     c     0.617560    0.555159    0.787618    0.000000
   243  C     c     0.279772    0.863179    0.571192    0.000000
   244  C     c     0.302058    0.565659    0.486569    0.000000
   245  C     c     0.501751    0.401188    0.572239    0.000000
   246  C     c     0.646158    0.212741    0.361710    0.000000
   247  C     c     0.382988    0.676597    0.226922    0.000000
   248  C     c     0.125592    0.760460    0.869610    0.000000
   249  C     c     0.786800    0.830261    0.590389    0.000000
   250  C     c     0.941209    0.769891    0.101079    0.000000
   251  C     c     0.771710    0.228341    0.847569    0.000000
   252  C     c     0.203850    0.232259    0.541902    0.000000
   253  C     c     0.782031    0.000990    0.614823    0.000000
   254  C     c     0.257081    0.403759    0.558619    0.000000
   255  C     c     0.003498    0.531041    0.914381    0.000000
   256  C     c     0.908647    0.309730    0.041210    0.000000
   257  C     c     0.131739    0.375026    0.404789    0.000000
   258  C     c     0.673138    0.076052    0.137469    0.000000
   259  C     c     0.876042    0.702292    0.635019    0.000000
   260  C     c     0.765720    0.086952    0.771976    0.000000
   261  C     c     0.022338    0.404150    0.103767    0.000000
   262  C     c     0.979360    0.479252    0.247119    0.000000
   263  C     c     0.565270    0.837190    0.773701    0.000000
   264  C     c     0.943544    0.556379    0.719060    0.000000
   265  C     c     0.963119    0.733088    0.933300    0.000000
   266  C     c     0.036630    0.128330    0.913641    0.000000
   267  C     c     0.025531    0.887979    0.962580    0.000000
   268  C     c     0.309220    0.936351    0.487969    0.000000
   269  C     c     0.243888    0.548420    0.800920    0.000000
   270  C     c     0.477959    0.919991    0.457769    0.000000
   271  C     c     0.712640    0.558452    0.398030    0.000000
   272  C     c     0.888940    0.033693    0.875977    0.000000
   273  C     c     0.474139    0.273288    0.729309    0.000000
   274  C     c     0.681269    0.596623    0.560002    0.000000
   275  C     c     0.153590    0.262738    0.630211    0.000000
   276  C     c     0.159000    0.489863    0.647590    0.000000
   277  C     c     0.850939    0.599029    0.129451    0.000000
   278  C     c     0.798231    0.397493    0.389796    0.000000
   279  C     c     0.552970    0.159761    0.367761    0.000000
   280  C     c     0.411069    0.373759    0.957480    0.000000
   281  C     c     0.795466    0.009049    0.931598    0.000000
   282  C     c     0.055569    0.695932    0.911139    0.000000
   283  C     c     0.503391    0.045958    0.280460    0.000000
   284  C     c     0.100542    0.158999    0.752662    0.000000
   285  C     c     0.249049    0.154597    0.040326    0.000000
   286  C     c     0.602201    0.287701    0.590501    0.000000
   287  C     c     0.272111    0.003272    0.670569    0.000000
   288  C     c     0.274051    0.961999    0.294151    0.000000
   289  C     c     0.599920    0.910170    0.329508    0.000000
   290  C     c     0.004170    0.068132    0.215539    0.000000
   291  C     c     0.943220    0.347510    0.128479    0.000000
   292  C     c     0.573531    0.977429    0.252851    0.000000
   293  C     c     0.408749    0.108593    0.441607    0.000000
   294  C     c     0.288409    0.626761    0.191001    0.000000
   295  C     c     0.859021    0.213240    0.700101    0.000000
   296  C     c     0.102400    0.706230    0.450849    0.000000
   297  C     c     0.211020    0.011250    0.873330    0.000000
   298  C     c     0.416769    0.397231    0.133421    0.000000
   299  C     c     0.385353    0.874918    0.713621    0.000000
   300  C     c     0.569389    0.354161    0.049601    0.000000
   301  C     c     0.802060    0.697382    0.981162    0.000000
   302  C     c     0.718738    0.748222    0.220712    0.000000
   303  C     c     0.092479    0.343050    0.601342    0.000000
   304  C     c     0.362220    0.211569    0.987491    0.000000
   305  C     c     0.523139    0.828460    0.622608    0.000000
   306  C     c     0.192590    0.648100    0.054989    0.000000
   307  C     c     0.760861    0.856731    0.046648    0.000000
   308  C     c     0.394378    0.842750    0.270123    0.000000
   309  C     c     0.713749    0.222090    0.110801    0.000000
   310  C     c     0.049941    0.650630    0.612262    0.000000
   311  C     c     0.657359    0.587370    0.144199    0.000000
   312  C     c     0.009860    0.979330    0.268832    0.000000
   313  C     c     0.934181    0.879272    0.386680    0.000000
   314  C     c     0.366290    0.922009    0.327000    0.000000
   315  C     c     0.745119    0.355459    0.240062    0.000000
   316  C     c     0.347110    0.525419    0.399209    0.000000
   317  C     c     0.452202    0.858310    0.548700    0.000000
   318  C     c     0.042982    0.354391    0.454669    0.000000
   319  C     c     0.789151    0.490023    0.431922    0.000000
   320  C     c     0.861891    0.039621    0.366691    0.000000
   321  C     c     0.701891    0.169218    0.286029    0.000000
   322  C     c     0.203824    0.167832    0.942368    0.000000
   323  C     c     0.331319    0.852479    0.086239    0.000000
   324  C     c     0.611269    0.929301    0.090309    0.000000
   325  C     c     0.745650    0.648938    0.824288    0.000000
   326  C     c     0.767242    0.064509    0.097819    0.000000
   327  C     c     0.161091    0.019379    0.487439    0.000000
   328  C     c     0.211450    0.719901    0.480061    0.000000
   329  C     c     0.403071    0.350111    0.307178    0.000000
   330  C     c     0.322238    0.746841    0.079312    0.000000
   331  C     c     0.683821    0.633121    0.647088    0.000000
   332  C     c     0.564789    0.553499    0.096360    0.000000
   333  C     c     0.490872    0.031018    0.464762    0.000000
   334  C     c     0.709649    0.066860    0.564659    0.000000
   335  C     c     0.954817    0.489743    0.403589    0.000000
   336  C     c     0.555049    0.218718    0.539570    0.000000
   337  C     c     0.251031    0.783211    0.406672    0.000000
   338  C     c     0.969501    0.829972    0.552690    0.000000
   339  C     c     0.900290    0.657161    0.972747    0.000000
   340  C     c     0.700572    0.639996    0.470369    0.000000
   341  C     c     0.662351    0.748262    0.476959    0.000000
   342  C     c     0.941762    0.442631    0.583131    0.000000
   343  C     c     0.477869    0.404289    0.357769    0.000000
   344  C     c     0.267060    0.185662    0.742062    0.000000
   345  C     c     0.965679    0.024471    0.041569    0.000000
   346  C     c     0.212473    0.313371    0.699569    0.000000
   347  C     c     0.150840    0.426948    0.563139    0.000000
   348  C     c     0.683918    0.754458    0.090191    0.000000
   349  C     c     0.449761    0.352513    0.649288    0.000000
   350  C     c     0.944688    0.978660    0.352979    0.000000
   351  C     c     0.104520    0.608640    0.051762    0.000000
   352  C     c     0.316899    0.200181    0.655329    0.000000
   353  C     c     0.368041    0.268570    0.516520    0.000000
   354  C     c     0.163878    0.267680    0.948050    0.000000
   355  C     c     0.573620    0.756661    0.417850    0.000000
   356  C     c     0.724111    0.302248    0.702381    0.000000
   357  C     c     0.733101    0.849781    0.764158    0.000000
   358  C     c     0.569052    0.066959    0.406779    0.000000
   359  C     c     0.374451    0.412350    0.695431    0.000000
   360  C     c     0.488878    0.055108    0.564648    0.000000
   361  C     c     0.550421    0.865140    0.399531    0.000000
   362  C     c     0.809898    0.847898    0.692351    0.000000
   363  C     c     0.974138    0.734518    0.598239    0.000000
   364  C     c     0.854070    0.320247    0.516842    0.000000
   365  C     c     0.644381    0.688821    0.169720    0.000000
   366  C     c     0.328341    0.485699    0.558600    0.000000
   367  C     c     0.605059    0.035349    0.073003    0.000000
   368  C     c     0.143088    0.670001    0.676888    0.000000
   369  C     c     0.262488    0.157100    0.580101    0.000000
   370  C     c     0.733791    0.465580    0.038129    0.000000
   371  C     c     0.848152    0.591901    0.309818    0.000000
   372  C     c     0.150630    0.564617    0.896510    0.000000
   373  C     c     0.131392    0.461752    0.881678    0.000000
   374  C     c     0.259360    0.848449    0.910311    0.000000
   375  C     c     0.140188    0.378680    0.290529    0.000000
   376  C     c     0.086310    0.192023    0.664077    0.000000
   377  C     c     0.252862    0.689201    0.118690    0.000000
   378  C     c     0.298071    0.579532    0.718231    0.000000
   379  C     c     0.053919    0.280840    0.804761    0.000000
   380  C     c     0.022102    0.525689    0.334360    0.000000
   381  C     c     0.959048    0.379979    0.388928    0.000000
   382  C     c     0.837662    0.700329    0.309281    0.000000
   383  C     c     0.265392    0.756499    0.566018    0.000000
   384  C     c     0.883841    0.969910    0.994593    0.000000
   385  C     c     0.315001    0.056938    0.152309    0.000000
   386  C     c     0.402911    0.258413    0.615359    0.000000
   387  C     c     0.363010    0.865982    0.913881    0.000000
   388  C     c     0.739188    0.595701    0.303231    0.000000
   389  C     c     0.240652    0.334731    0.001318    0.000000
   390  C     c     0.699400    0.994541    0.481060    0.000000
   391  C     c     0.054679    0.172198    0.018848    0.000000
   392  C     c     0.125251    0.832068    0.612781    0.000000
   393  C     c     0.478161    0.767660    0.800992    0.000000
   394  C     c     0.069966    0.574921    0.763272    0.000000
   395  C     c     0.802001    0.995170    0.447090    0.000000
   396  C     c     0.926810    0.626220    0.478820    0.000000
   397  C     c     0.008791    0.422609    0.000161    0.000000
   398  C     c     0.097372    0.334659    0.087060    0.000000
   399  C     c     0.191559    0.513620    0.337280    0.000000
   400  C     c     0.413582    0.608530    0.636302    0.000000
   401  C     c     0.349978    0.798722    0.427450    0.000000
   402  C     c     0.434016    0.474219    0.529109    0.000000
   403  C     c     0.476812    0.683290    0.178546    0.000000
   404  C     c     0.939250    0.129628    0.485221    0.000000
   405  C     c     0.420061    0.275100    0.924597    0.000000
   406  C     c     0.209190    0.450602    0.808712    0.000000
   407  C     c     0.930931    0.583179    0.055802    0.000000
   408  C     c     0.608741    0.071361    0.975917    0.000000
   409  C     c     0.698229    0.847128    0.221962    0.000000
   410  C     c     0.666871    0.220659    0.011129    0.000000
   411  C     c     0.981977    0.740679    0.708910    0.000000
   412  C     c     0.281209    0.276070    0.375902    0.000000
   413  C     c     0.902987    0.563140    0.225710    0.000000
   414  C     c     0.527511    0.457708    0.270472    0.000000
   415  C     c     0.026689    0.144568    0.611720    0.000000
   416  C     c     0.141999    0.084589    0.922527    0.000000
   417  C     c     0.142310    0.119770    0.052345    0.000000
   418  C     c     0.329749    0.105599    0.517829    0.000000
   419  C     c     0.757700    0.162369    0.536751    0.000000
   420  C     c     0.819850    0.950421    0.224972    0.000000
   421  C     c     0.460969    0.567730    0.961820    0.000000
   422  C     c     0.568591    0.313599    0.858521    0.000000
   423  C     c     0.003649    0.978709    0.446280    0.000000
   424  C     c     0.159612    0.059589    0.260681    0.000000
   425  C     c     0.099452    0.966151    0.737740    0.000000
   426  C     c     0.282770    0.386088    0.841408    0.000000
   427  C     c     0.496970    0.792104    0.256258    0.000000
   428  C     c     0.416460    0.770710    0.508221    0.000000
   429  C     c     0.525821    0.495341    0.013630    0.000000
   430  C     c     0.310700    0.230949    0.822741    0.000000
   431  C     c     0.576609    0.463201    0.771231    0.000000
   432  C     c     0.625938    0.314267    0.687912    0.000000
   433  C     c     0.601119    0.643929    0.935549    0.000000
   434  C     c     0.875041    0.551359    0.407590    0.000000
   435  C     c     0.572922    0.266071    0.765978    0.000000
   436  C     c     0.917431    0.646535    0.816112    0.000000
   437  C     c     0.836861    0.158921    0.610110    0.000000
   438  C     c     0.683411    0.137199    0.715962    0.000000
   439  C     c     0.600700    0.686109    0.335830    0.000000
   440  C     c     0.608080    0.166011    0.786599    0.000000
   441  C     c     0.712469    0.067371    0.307410    0.000000
   442  C     c     0.510579    0.193970    0.090990    0.000000
   443  C     c     0.554931    0.301111    0.228531    0.000000
   444  C     c     0.996970    0.728762    0.179090    0.000000
   445  C     c     0.638801    0.090202    0.635241    0.000000
   446  C     c     0.910970    0.331041    0.209730    0.000000
   447  C     c     0.055251    0.961530    0.038459    0.000000
   448  C     c     0.502200    0.651070    0.919800    0.000000
   449  C     c     0.382699    0.110090    0.856449    0.000000
   450  C     c     0.313130    0.143401    0.213511    0.000000
   451  C     c     0.225309    0.919898    0.723021    0.000000
   452  C     c     0.380272    0.618882    0.532219    0.000000
   453  C     c     0.996001    0.453010    0.495852    0.000000
   454  C     c     0.490470    0.767573    0.123541    0.000000
   455  C     c     0.058991    0.309932    0.273161    0.000000
   456  C     c     0.621001    0.416701    0.690450    0.000000
   457  C     c     0.644531    0.411991    0.994451    0.000000
   458  C     c     0.406180    0.711439    0.387929    0.000000
   459  C     c     0.090753    0.819161    0.057631    0.000000
   460  C     c     0.288129    0.256171    0.054061    0.000000
   461  C     c     0.846009    0.942703    0.781606    0.000000
[...]

-------------------------------------------------------------------------------
    1 =    1.00000      2 =    1.00000      3 =    1.00000
-------------------------------------------------------------------------------


  Phonon Calculation : 

  Number of k points for this configuration =        1

--------------------------------------------------------------------------------
  K point      1 =   0.000000  0.000000  0.000000  Weight =    1.000
--------------------------------------------------------------------------------

  Frequencies (cm-1) [NB: Negative implies an imaginary mode]:

   -0.00    0.00    0.00   80.49  100.77  108.61  119.64  121.18  128.30
  135.24  139.23  139.87  141.63  144.77  149.68  151.63  153.18  158.42
  160.29  162.13  166.76  167.43  173.31  174.44  177.59  180.07  181.86
  184.39  185.32  188.28  188.75  190.89  193.53  197.79  199.95  202.90
  205.59  206.69  208.59  209.99  211.48  212.74  213.94  215.22  220.24
  221.64  223.01  225.44  226.18  227.22  228.77  230.85  232.26  235.09
  236.75  239.22  240.36  242.10  244.59  245.06  246.40  248.06  250.53
  252.11  252.85  254.61  257.46  258.12  262.11  262.97  264.51  265.11
  267.62  268.35  270.45  272.63  273.26  273.81  275.25  276.95  279.46
  280.90  281.83  283.06  285.13  285.49  286.26  287.14  288.33  289.24
  292.26  293.55  295.14  295.94  297.47  298.12  299.32  301.65  304.15
  305.50  307.25  307.66  307.87  308.17  311.00  312.32  313.15  313.93
  316.19  317.07  318.00  319.56  321.41  321.73  322.96  323.41  325.87
  327.65  328.18  328.93  329.77  330.14  331.16  332.24  332.71  333.66
  336.40  337.03  337.48  338.47  339.99  341.74  342.15  343.46  344.38
  346.92  347.88  348.79  349.57  351.14  352.02  353.03  353.71  354.54
  356.65  357.43  358.05  358.79  359.36  360.45  361.40  362.30  362.67
  363.83  366.21  367.15  368.50  368.93  369.78  371.31  372.33  372.65
  374.63  374.81  375.61  376.58  377.30  378.86  380.17  381.09  381.72
  383.49  384.52  385.53  386.07  386.90  388.86  389.24  390.88  391.40
  392.19  393.98  394.23  394.82  395.88  395.97  396.84  398.05  398.28
  400.11  400.72  401.90  402.32  402.97  404.81  406.02  406.88  407.31
  408.97  409.89  411.32  412.54  412.87  414.15  415.10  415.86  416.40
  418.25  418.28  419.69  421.24  421.92  422.42  423.92  425.33  425.82
  426.53  428.66  429.53  430.59  432.02  432.38  433.50  434.04  435.45
  436.65  437.81  438.38  439.48  439.82  440.42  441.72  442.54  443.13
  444.77  444.94  446.03  447.48  447.61  448.74  449.89  450.40  451.22
  452.25  452.68  454.19  454.86  456.02  457.30  457.90  458.66  459.95
  461.31  461.72  464.32  465.08  465.66  466.32  467.74  468.51  468.80
  470.44  471.47  472.13  473.34  473.66  475.53  476.21  476.46  477.81
  478.79  479.39  479.97  481.90  482.54  483.58  484.26  484.46  485.15
  486.74  486.94  488.95  489.47  490.36  492.45  493.36  493.92  494.47
  495.65  496.34  497.04  498.39  498.71  499.01  501.31  501.85  503.10
  503.77  504.17  505.46  506.31  506.90  509.01  509.84  510.93  511.94
  512.05  512.93  514.09  515.06  515.81  516.61  517.52  518.55  518.87
  519.81  521.73  522.37  523.14  524.02  525.00  525.24  526.55  527.95
  529.01  529.17  530.39  530.95  532.12  532.49  533.29  534.93  535.33
  536.44  536.85  537.35  537.77  538.82  540.30  541.96  542.71  543.20
  543.63  543.94  545.39  545.65  547.11  548.39  548.80  550.22  550.90
  551.68  552.61  553.25  554.11  554.53  556.57  557.90  558.22  558.88
  559.20  560.10  562.11  562.56  563.78  565.41  565.70  566.49  567.87
  568.10  569.08  570.24  571.37  571.68  574.56  574.73  575.16  576.44
  578.37  578.93  579.97  580.62  581.65  582.09  582.49  583.55  584.69
  584.77  585.70  587.98  588.18  589.50  590.37  591.38  592.49  593.22
  593.88  594.99  595.95  596.02  596.50  598.30  598.96  599.38  600.64
  602.14  602.63  603.51  604.03  604.58  605.51  605.72  606.76  607.83
  608.31  609.83  611.12  612.09  612.47  612.68  613.31  614.15  616.31
  616.84  617.18  617.32  618.59  620.22  620.96  621.51  623.53  624.23
  625.05  626.48  627.60  627.90  629.58  629.82  630.45  631.11  632.57
  633.07  634.07  635.40  636.73  637.01  638.46  639.40  640.17  640.64
  641.66  641.81  642.81  643.66  644.69  646.63  646.92  647.55  648.27
  649.14  649.98  650.55  651.91  652.45  652.60  654.81  655.16  655.56
  657.25  658.35  659.71  659.96  660.60  661.11  662.84  663.53  665.20
  665.62  665.91  666.87  668.13  668.98  669.72  672.75  673.07  673.31
  674.34  674.52  676.45  677.37  678.00  678.81  679.48  681.17  682.05
  682.47  683.51  684.81  685.40  685.83  687.20  687.45  689.58  690.48
  691.45  691.77  692.45  693.50  694.56  695.47  695.91  696.43  697.47
  698.87  699.78  700.53  701.46  702.20  704.01  704.73  705.70  707.09
  707.42  707.83  708.90  709.97  710.77  712.35  712.89  713.99  714.52
  715.32  716.46  716.70  717.88  719.14  720.09  720.64  721.72  723.67
  724.26  725.28  725.51  727.26  728.53  729.52  729.70  729.93  730.88
  732.45  733.21  734.34  735.40  736.45  737.35  737.85  738.87  740.39
  740.89  741.33  742.13  743.72  744.90  745.08  745.66  747.18  748.70
  749.12  749.56  749.97  751.53  751.95  752.42  753.54  754.34  755.24
  756.40  758.32  758.64  759.93  760.82  761.33  763.26  763.85  764.34
  765.40  765.66  768.10  768.65  769.04  770.00  770.68  771.50  773.06
  774.64  775.27  776.50  776.63  777.67  778.87  779.37  779.41  780.48
  781.99  782.62  783.76  785.35  786.01  786.17  787.16  788.27  788.77
  790.83  791.75  792.58  792.81  793.75  794.35  795.90  796.85  798.00
  798.44  799.04  800.21  800.53  800.97  803.14  803.84  805.34  805.56
  806.55  806.96  808.85  809.42  810.47  811.82  813.09  813.65  814.95
  815.69  817.23  817.51  817.73  818.19  819.33  820.27  821.95  823.80
  824.52  825.09  825.74  827.28  828.45  828.97  829.43  829.87  830.96
  831.33  832.78  833.50  834.96  835.84  837.44  838.08  838.98  839.65
  840.03  840.77  841.12  842.60  842.84  844.44  844.77  845.59  846.18
  848.26  849.00  849.79  851.02  851.48  851.66  852.77  853.93  854.78
  855.55  856.83  857.54  858.55  858.89  859.42  861.10  861.54  862.15
  863.94  864.67  864.99  865.59  867.18  867.79  869.15  869.79  870.93
  871.72  872.36  873.08  874.23  875.50  877.20  877.93  878.73  878.97
  880.30  881.41  882.24  882.63  884.10  884.29  885.00  886.22  886.71
  888.10  889.18  889.36  891.30  892.22  892.36  893.49  895.26  895.62
  896.65  897.03  897.94  898.82  901.15  901.49  902.89  903.99  904.37
  905.05  905.49  906.69  908.06  909.07  909.89  910.86  911.75  912.52
  912.85  915.02  915.35  916.82  917.19  917.90  919.07  920.41  920.93
  921.26  922.23  923.26  924.98  925.56  926.54  926.91  928.53  929.06
  929.98  930.80  931.63  932.96  933.97  934.15  934.72  936.24  937.56
  938.42  939.45  940.18  940.44  941.45  942.31  943.64  944.39  946.29
  947.12  947.78  948.16  949.68  950.07  951.44  951.86  952.86  953.75
  954.63  954.64  955.00  956.47  958.21  958.95  960.32  960.96  962.23
  962.81  962.91  963.62  964.42  965.97  966.92  968.00  968.56  969.92
  971.20  972.64  973.48  975.03  975.58  976.05  977.01  977.35  978.02
  978.74  979.13  980.13  980.58  980.97  982.41  983.28  984.11  985.10
  985.42  986.22  987.13  987.92  989.56  990.92  991.65  992.61  993.62
  993.68  994.44  995.82  996.59  996.77  997.48  998.43  999.57 1000.06
 1001.59 1002.08 1003.35 1003.54 1004.87 1006.16 1007.05 1008.30 1009.00
 1010.05 1010.65 1011.90 1012.18 1013.99 1014.36 1014.96 1017.01 1017.13
 1017.80 1018.88 1019.30 1021.49 1021.80 1022.68 1023.37 1024.59 1025.56
 1026.60 1027.40 1027.98 1028.45 1028.88 1029.48 1030.08 1030.64 1031.85
 1033.01 1033.61 1034.12 1034.57 1035.39 1036.46 1036.83 1037.46 1038.73
 1039.33 1040.11 1040.79 1041.27 1041.53 1043.59 1044.08 1045.99 1046.31
 1047.01 1047.30 1048.14 1049.25 1050.56 1051.51 1052.52 1052.96 1053.85
 1054.72 1055.43 1055.93 1057.62 1058.03 1058.74 1060.21 1060.73 1061.25
 1063.14 1063.90 1064.12 1065.01 1066.35 1067.13 1068.43 1068.78 1070.53
 1071.21 1071.74 1072.61 1073.21 1074.44 1074.72 1075.65 1076.40 1077.05
 1078.19 1079.29 1079.61 1080.13 1080.54 1081.99 1083.63 1084.02 1085.22
 1086.50 1086.80 1087.45 1088.34 1088.86 1089.58 1090.54 1091.19 1091.99
 1092.59 1093.20 1094.92 1095.28 1095.67 1096.60 1098.23 1098.39 1099.03
 1100.40 1100.86 1101.76 1102.49 1102.92 1103.50 1104.16 1104.64 1105.35
 1106.09 1107.93 1108.38 1108.48 1109.65 1110.35 1111.38 1112.13 1113.39
 1114.43 1114.49 1115.94 1117.02 1117.25 1118.65 1119.46 1120.04 1120.16
 1121.31 1122.79 1123.36 1123.97 1124.41 1124.91 1125.74 1127.65 1128.29
 1129.32 1129.97 1130.32 1130.87 1131.48 1132.74 1133.45 1134.56 1135.05
 1135.89 1137.15 1137.76 1138.17 1139.71 1140.66 1141.47 1142.00 1142.11
 1143.23 1144.27 1145.05 1146.75 1146.84 1147.20 1147.90 1148.55 1149.58
 1150.00 1150.60 1151.27 1151.94 1152.51 1153.84 1154.15 1155.38 1156.09
 1156.67 1156.94 1157.89 1158.82 1160.15 1160.66 1161.52 1162.40 1163.32
 1164.39 1165.14 1166.67 1167.79 1168.33 1168.91 1170.55 1170.99 1171.47
 1171.73 1173.09 1173.44 1174.81 1175.71 1176.28 1177.44 1178.01 1178.17
 1179.68 1180.59 1182.04 1183.03 1183.47 1184.96 1185.80 1186.35 1187.33
 1188.47 1188.79 1189.59 1190.77 1191.35 1193.49 1194.44 1195.73 1196.44
 1197.04 1199.13 1199.60 1200.31 1201.30 1201.93 1203.46 1204.50 1205.06
 1205.36 1205.70 1206.82 1207.19 1207.88 1209.67 1210.37 1210.51 1212.40
 1213.79 1214.04 1214.50 1215.94 1216.19 1216.33 1217.08 1218.10 1218.85
 1219.25 1220.94 1221.43 1223.01 1223.47 1224.31 1225.08 1226.63 1227.17
 1227.50 1229.08 1229.95 1231.47 1232.65 1233.01 1234.30 1235.85 1236.33
 1236.71 1238.09 1238.85 1239.08 1240.51 1241.33 1242.08 1243.14 1244.58
 1247.00 1247.21 1247.97 1249.00 1249.66 1250.26 1251.78 1253.48 1255.03
 1256.24 1257.64 1257.81 1258.19 1258.90 1259.83 1261.37 1263.58 1264.18
 1266.48 1267.22 1267.90 1269.15 1269.69 1270.14 1271.49 1273.19 1273.65
 1273.78 1275.43 1276.44 1277.14 1278.38 1279.64 1281.60 1282.50 1283.58
 1285.96 1286.14 1287.96 1288.70 1288.91 1290.42 1290.57 1290.79 1291.63
 1293.32 1293.45 1293.83 1295.84 1296.45 1297.13 1298.62 1298.99 1300.24
 1300.81 1301.70 1303.53 1304.00 1304.75 1305.90 1306.43 1307.44 1309.34
 1310.14 1311.15 1312.38 1313.45 1314.74 1315.34 1316.42 1317.78 1318.44
 1320.13 1321.34 1322.47 1323.25 1326.58 1327.03 1327.77 1329.45 1330.18
 1330.47 1330.99 1333.08 1333.51 1334.72 1336.26 1337.18 1337.81 1338.21
 1338.99 1341.24 1342.25 1343.19 1344.89 1345.69 1347.87 1348.45 1350.02
 1351.08 1351.61 1352.24 1354.67 1355.60 1356.91 1357.66 1358.78 1359.90
 1361.21 1363.88 1364.18 1365.10 1366.17 1367.14 1367.81 1369.31 1369.92
 1370.58 1373.01 1374.27 1374.81 1375.07 1375.76 1378.58 1380.18 1380.73
 1381.68 1383.06 1383.63 1384.71 1384.72 1387.25 1387.80 1388.32 1390.03
 1390.56 1391.33 1393.00 1394.41 1394.57 1394.71 1396.10 1396.62 1398.39
 1399.07 1399.63 1401.04 1401.96 1403.56 1403.78 1404.11 1406.67 1407.99
 1411.89 1413.39 1415.02 1416.13 1417.77 1418.57 1420.28 1421.46 1424.71
 1426.39 1428.13 1429.37 1430.87 1432.85 1434.02 1437.44 1440.14 1441.16
 1443.54 1445.19 1447.09 1447.69 1449.82 1451.22 1451.45 1453.03 1454.89
 1456.16 1456.66 1457.82 1458.21 1460.51 1464.24 1464.40 1468.62 1470.24
 1471.97 1473.61 1474.44 1476.49 1478.40 1479.05 1482.36 1484.52 1486.31
 1487.52 1488.22 1490.45 1492.78 1495.91 1496.93 1498.84 1505.01 1507.20
 1508.43 1509.16 1509.41 1511.80 1514.08 1515.20 1517.25 1518.46 1519.83
 1521.21 1527.88 1527.95 1534.69 1536.09 1536.42 1537.56 1540.19 1553.93
 1556.06 1557.88 1562.45 1569.59 1570.85 1575.49 1585.35 1588.78 1589.57
 1592.05 1597.36 1601.14 1606.06 1612.60 1617.68 1622.11 1632.71 1634.75
 1635.99 1656.86 1661.96 1665.17 1669.80 1671.11 1674.21 1675.53 1684.51
 1691.69 1700.39 1706.34 1711.24 1714.71 1744.77 1754.65 1760.89 1761.98
 1770.90 1785.57 1790.71 1794.53 1806.51 1816.85 1820.17 1829.38 1831.69
 1832.41 1844.55 1847.57 1863.94 1875.21 1900.46 1903.35 1925.43 1940.29
 1950.47 1971.56 1972.46 1973.85 1975.04 1985.94 1990.86 1994.20 2009.68
 2019.10 2034.27 2046.25 2048.91 2048.96 2060.06 2070.67 2096.05 2099.62
 2119.10 2122.62 2125.44 2140.42 2159.88 2163.53 2172.89 2174.49 2185.22
 2188.84 2190.22 2197.94 2203.34 2220.38 2222.09 2226.62 2235.74 2251.69
 2279.30 2283.81 2374.50 2378.85 2379.33 2382.33 2389.11 2424.73 2431.69
 2455.28 2502.58 2503.43 2504.86 2513.55 2537.65 2547.01 2561.38 2592.80
 2615.54 2628.82 2628.99 2629.42 2635.70 2651.83 2655.50 2662.22 2666.78
 2678.49 2711.00 2738.57 2746.81 2747.72 2751.83 2755.39 2778.69 2791.47
 2831.36 2835.37 2848.25 2850.21 2854.54 2856.53 2862.17 2892.37 2894.96
 2899.77 2901.91 2948.20 2953.37 2966.66 2970.72 2974.51 2981.30 2989.42
 2998.58 3005.67 3013.03 3014.21 3021.30 3024.68 3030.75 3040.01 3041.46
 3044.88 3046.47 3051.46 3065.25 3096.57 3099.67 3150.46 3160.76 3237.25
 3254.75 3259.47 3261.69 3271.32 3296.92 3300.60 3309.96 3313.83 3316.54
 3404.02 3478.74 3483.97 3490.78 3548.60 3875.82


--------------------------------------------------------------------------------
  Phonon properties (per mole of unit cells): Temperature =      0.000 K
--------------------------------------------------------------------------------
  Zero point energy            =       97.091949 eV
--------------------------------------------------------------------------------

  Phonon density of states : 

--------------------------------------------------------------------------------
 Frequency (cm-1) Density of States                                             
--------------------------------------------------------------------------------
    0.00000 |*                                                             0.001
   60.55964 |***                                                           0.003
  121.11929 |**************                                                0.012
  181.67893 |************************                                      0.021
  242.23858 |*******************************                               0.026
  302.79822 |******************************************                    0.036
  363.35787 |**********************************************                0.039
  423.91751 |**************************************************            0.042
  484.47716 |***************************************************           0.043
  545.03680 |****************************************************          0.044
  605.59645 |****************************************************          0.044
  666.15609 |*************************************************             0.042
  726.71574 |****************************************************          0.044
  787.27538 |**************************************************            0.042
  847.83503 |****************************************************          0.044
  908.39467 |****************************************************          0.044
  968.95432 |******************************************************        0.046
 1029.51396 |********************************************************      0.047
 1090.07361 |************************************************************  0.050
 1150.63325 |*****************************************************         0.045
 1211.19289 |************************************************              0.040
 1271.75254 |*********************************************                 0.038
 1332.31218 |******************************************                    0.035
 1392.87183 |********************************                              0.027
 1453.43147 |************************                                      0.021
 1513.99112 |**************                                                0.012
 1574.55076 |**********                                                    0.008
 1635.11041 |*******                                                       0.007
 1695.67005 |****                                                          0.004
 1756.22970 |*****                                                         0.005
 1816.78934 |*******                                                       0.006
 1877.34899 |**                                                            0.002
 1937.90863 |*******                                                       0.006
 1998.46828 |****                                                          0.004
 2059.02792 |***                                                           0.003
 2119.58757 |*****                                                         0.005
 2180.14721 |*******                                                       0.006
 2240.70686 |**                                                            0.002
 2301.26650 |                                                              0.000
 2361.82615 |***                                                           0.003
 2422.38579 |**                                                            0.002
 2482.94543 |***                                                           0.003
 2543.50508 |**                                                            0.002
 2604.06472 |******                                                        0.005
 2664.62437 |**                                                            0.002
 2725.18401 |****                                                          0.004
 2785.74366 |**                                                            0.002
 2846.30330 |*******                                                       0.006
 2906.86295 |**                                                            0.002
 2967.42259 |*******                                                       0.007
 3027.98224 |*****                                                         0.005
 3088.54188 |*                                                             0.001
 3149.10153 |*                                                             0.001
 3209.66117 |***                                                           0.003
 3270.22082 |****                                                          0.004
 3330.78046 |                                                              0.000
 3391.34011 |                                                              0.001
 3451.89975 |**                                                            0.002
 3512.45940 |                                                              0.001
 3573.01904 |                                                              0.000
 3633.57868 |                                                              0.000
 3694.13833 |                                                              0.000
 3754.69797 |                                                              0.000
 3815.25762 |                                                              0.001
--------------------------------------------------------------------------------



  Time to end of optimisation =      10.6694 seconds


  Peak dynamic memory used =       4.22 MB 


  Timing analysis for GULP :

--------------------------------------------------------------------------------
  Task / Subroutine                                          Time (Seconds)
--------------------------------------------------------------------------------
  Calculation of real space energy and derivatives                0.0003
  Calculation of Brenner energy and derivatives                   7.4277
  Calculation of phonons                                          3.3038
  Global summation overhead                                       1.3688
--------------------------------------------------------------------------------
  Total CPU time                                                 10.6695
--------------------------------------------------------------------------------


  CIF file written as opti.cif


  Job Finished at 10:54.43 21st February   2021                               

