********************************************************************************
*                       GENERAL UTILITY LATTICE PROGRAM                        *
*                                 Julian Gale                                  *
*                       Curtin Institute for Computation                       *
*                    School of Molecular and Life Sciences                     *
*                    Curtin University, Western Australia                      *
********************************************************************************
* Version = 5.2.0 * Last modified =  17th December 2019                        *
********************************************************************************
*  optimise     - perform optimisation run                                     *
*  conv         - constant volume calculation                                  *
*  isotropic    - only isotropic cell expansion to be allowed                  *
*  lbfgs        - use limited memory BFGS update                               *
********************************************************************************
* ASE calculation                                                              *
********************************************************************************


  Job Started  at 22:04.42 30th July       2020                               

  Number of CPUs =     1


  Total number of configurations input =      1

********************************************************************************
*  Input for Configuration =   1                                               *
********************************************************************************

  Formula = C64                                                         

  Number of irreducible atoms/shells =      64


  Total number atoms/shells =      64

  Dimensionality = 3               :  Bulk   



  Cartesian lattice vectors (Angstroms) :

        7.726634    0.000000    0.000000
        0.000000    7.726634    0.000000
        0.000000    0.000000    7.726634

  Cell parameters (Angstroms/Degrees):

  a =       7.7266    alpha =  90.0000
  b =       7.7266    beta  =  90.0000
  c =       7.7266    gamma =  90.0000

  Initial cell volume =         461.286795 Angs**3

  Temperature of configuration =   0.00     K 

  Pressure of configuration =         0.000 GPa 

  Fractional coordinates of asymmetric unit :

--------------------------------------------------------------------------------
   No.  Atomic       x           y          z         Charge      Occupancy
        Label      (Frac)      (Frac)     (Frac)        (e)         (Frac)  
--------------------------------------------------------------------------------
      1 C     c    0.476040    0.519880    0.065020     0.00000    1.000000    
      2 C     c    0.408230 *  0.739570 *  0.304320 *   0.00000    1.000000    
      3 C     c    0.283500 *  0.257800 *  0.903540 *   0.00000    1.000000    
      4 C     c    0.121740 *  0.015000 *  0.619820 *   0.00000    1.000000    
      5 C     c    0.961630 *  0.858120 *  0.881770 *   0.00000    1.000000    
      6 C     c    0.791230 *  0.484810 *  0.577650 *   0.00000    1.000000    
      7 C     c    0.611650 *  0.418220 *  0.674250 *   0.00000    1.000000    
      8 C     c    0.791740 *  0.717880 *  0.328190 *   0.00000    1.000000    
      9 C     c    0.885060 *  0.252990 *  0.323860 *   0.00000    1.000000    
     10 C     c    0.677960 *  0.164610 *  0.130500 *   0.00000    1.000000    
     11 C     c    0.876740 *  0.039070 *  0.362680 *   0.00000    1.000000    
     12 C     c    0.961970 *  0.955970 *  0.523330 *   0.00000    1.000000    
     13 C     c    0.510700 *  0.062220 *  0.141510 *   0.00000    1.000000    
     14 C     c    0.554090 *  0.985780 *  0.487090 *   0.00000    1.000000    
     15 C     c    0.461770 *  0.326030 *  0.993000 *   0.00000    1.000000    
     16 C     c    0.946890 *  0.357160 *  0.482980 *   0.00000    1.000000    
     17 C     c    0.154070 *  0.421170 *  0.828520 *   0.00000    1.000000    
     18 C     c    0.831770 *  0.738730 *  0.814560 *   0.00000    1.000000    
     19 C     c    0.920120 *  0.954310 *  0.037080 *   0.00000    1.000000    
     20 C     c    0.147610 *  0.916410 *  0.794660 *   0.00000    1.000000    
     21 C     c    0.868360 *  0.656000 *  0.654380 *   0.00000    1.000000    
     22 C     c    0.879940 *  0.132590 *  0.720880 *   0.00000    1.000000    
     23 C     c    0.499460 *  0.600100 *  0.409770 *   0.00000    1.000000    
     24 C     c    0.653150 *  0.710260 *  0.882190 *   0.00000    1.000000    
     25 C     c    0.638740 *  0.591320 *  0.028020 *   0.00000    1.000000    
     26 C     c    0.781760 *  0.980410 *  0.706670 *   0.00000    1.000000    
     27 C     c    0.472510 *  0.453970 *  0.572730 *   0.00000    1.000000    
     28 C     c    0.358710 *  0.639340 *  0.140240 *   0.00000    1.000000    
     29 C     c    0.589570 *  0.956860 *  0.680290 *   0.00000    1.000000    
     30 C     c    0.718040 *  0.337390 *  0.232610 *   0.00000    1.000000    
     31 C     c    0.001140 *  0.187050 *  0.148080 *   0.00000    1.000000    
     32 C     c    0.965430 *  0.404090 *  0.890210 *   0.00000    1.000000    
     33 C     c    0.506120 *  0.789580 *  0.785060 *   0.00000    1.000000    
     34 C     c    0.837780 *  0.141480 *  0.024540 *   0.00000    1.000000    
     35 C     c    0.349610 *  0.176980 *  0.704320 *   0.00000    1.000000    
     36 C     c    0.114160 *  0.481020 *  0.449370 *   0.00000    1.000000    
     37 C     c    0.177470 *  0.156740 *  0.076340 *   0.00000    1.000000    
     38 C     c    0.281670 *  0.397800 *  0.512320 *   0.00000    1.000000    
     39 C     c    0.098910 *  0.680840 *  0.419430 *   0.00000    1.000000    
     40 C     c    0.930150 *  0.506570 *  0.035090 *   0.00000    1.000000    
     41 C     c    0.825710 *  0.254140 *  0.863560 *   0.00000    1.000000    
     42 C     c    0.362940 *  0.214000 *  0.165770 *   0.00000    1.000000    
     43 C     c    0.399470 *  0.120970 *  0.502590 *   0.00000    1.000000    
     44 C     c    0.983380 *  0.715560 *  0.265900 *   0.00000    1.000000    
     45 C     c    0.394910 *  0.281560 *  0.358750 *   0.00000    1.000000    
     46 C     c    0.560620 *  0.397310 *  0.336180 *   0.00000    1.000000    
     47 C     c    0.315270 *  0.767480 *  0.789300 *   0.00000    1.000000    
     48 C     c    0.937820 *  0.909940 *  0.211780 *   0.00000    1.000000    
     49 C     c    0.766280 *  0.492620 *  0.107940 *   0.00000    1.000000    
     50 C     c    0.254780 *  0.806800 *  0.411390 *   0.00000    1.000000    
     51 C     c    0.703920 *  0.556230 *  0.406270 *   0.00000    1.000000    
     52 C     c    0.957750 *  0.762410 *  0.534000 *   0.00000    1.000000    
     53 C     c    0.232480 *  0.605790 *  0.869400 *   0.00000    1.000000    
     54 C     c    0.043270 *  0.616500 *  0.115680 *   0.00000    1.000000    
     55 C     c    0.619960 *  0.289910 *  0.840110 *   0.00000    1.000000    
     56 C     c    0.437720 *  0.008810 *  0.964830 *   0.00000    1.000000    
     57 C     c    0.520090 *  0.915040 *  0.281560 *   0.00000    1.000000    
     58 C     c    0.206950 *  0.638760 *  0.050740 *   0.00000    1.000000    
     59 C     c    0.024090 *  0.212260 *  0.608440 *   0.00000    1.000000    
     60 C     c    0.263200 *  0.965980 *  0.492200 *   0.00000    1.000000    
     61 C     c    0.714850 *  0.905160 *  0.357290 *   0.00000    1.000000    
     62 C     c    0.247900 *  0.994030 *  0.956370 *   0.00000    1.000000    
     63 C     c    0.509550 *  0.102510 *  0.802490 *   0.00000    1.000000    
     64 C     c    0.189960 *  0.302950 *  0.668360 *   0.00000    1.000000    
--------------------------------------------------------------------------------


  Constraints : 

--------------------------------------------------------------------------------
  Constraint no.      Unconstrained     Constrained    Coefficient    Offset
                         Variable         Variable
--------------------------------------------------------------------------------
           1              Strain 1        Strain 2       1.00000      0.0000
           2              Strain 1        Strain 3       1.00000      0.0000
--------------------------------------------------------------------------------


********************************************************************************
*  General input information                                                   *
********************************************************************************

  Species output for all configurations : 

--------------------------------------------------------------------------------
  Species    Type    Atomic    Atomic    Charge       Radii (Angs)     Library
                     Number     Mass       (e)     Cova   Ionic  VDW   Symbol
--------------------------------------------------------------------------------
    C        Core        6      12.01   0.000000   0.770  0.000  1.530          
--------------------------------------------------------------------------------


  Lattice summation method               =    Ewald          (3-D)
                                         =    Parry          (2-D)
                                         =    Saunders et al (1-D)
  Accuracy factor for lattice sums       =   12.000


  Analytic derivatives to be used

  Time limit = Infinity

  Maximum range for interatomic potentials =    100000.000000 Angstroms

  Brenner et al 2002 potential to be used with explicit splines for P


********************************************************************************
*  Output for configuration   1                                                *
********************************************************************************


  Components of energy : 

--------------------------------------------------------------------------------
  Interatomic potentials     =           0.00000000 eV    
  Brenner potentials         =        -420.11297455 eV    
  Monopole - monopole (real) =           0.00000000 eV    
  Monopole - monopole (recip)=           0.00000000 eV    
  Monopole - monopole (total)=           0.00000000 eV    
--------------------------------------------------------------------------------
  Total lattice energy       =        -420.11297455 eV    
--------------------------------------------------------------------------------
  Total lattice energy       =          -40534.4800 kJ/(mole unit cells)
--------------------------------------------------------------------------------


  Number of variables =      189

  Maximum number of calculations  =          2000
  Maximum Hessian update interval =            10
  Maximum step size               =   1.000000000
  Maximum parameter tolerance     =   0.000010000
  Maximum function  tolerance     =   0.000010000
  Maximum gradient  tolerance     =   0.001000000
  Maximum gradient  component     =   0.010000000

  Maximum LM gradient tolerance   =   0.900000000
  Symmetry not applied to optimisation

  Limited Memory BFGS to be used of order   10

  BFGS hessian update to be used

  Lower half triangular hessian to be used

  Start of bulk optimisation :

  Cycle:      0 Energy:      -420.112975  Gnorm:      0.540795  CPU:    0.037
  Cycle:      1 Energy:      -420.236662  Gnorm:      0.473025  CPU:    0.085
  Cycle:      2 Energy:      -420.850143  Gnorm:      0.203663  CPU:    0.110
  Cycle:      3 Energy:      -420.978117  Gnorm:      0.170722  CPU:    0.124
  Cycle:      4 Energy:      -421.074843  Gnorm:      0.155731  CPU:    0.145
  Cycle:      5 Energy:      -421.138319  Gnorm:      0.111194  CPU:    0.153
  Cycle:      6 Energy:      -421.188969  Gnorm:      0.095018  CPU:    0.175
  Cycle:      7 Energy:      -421.234658  Gnorm:      0.121304  CPU:    0.185
  Cycle:      8 Energy:      -421.269712  Gnorm:      0.080525  CPU:    0.211
  Cycle:      9 Energy:      -421.289055  Gnorm:      0.063424  CPU:    0.220
  Cycle:     10 Energy:      -421.319099  Gnorm:      0.060461  CPU:    0.244
  Cycle:     11 Energy:      -421.331386  Gnorm:      0.108066  CPU:    0.254
  Cycle:     12 Energy:      -421.345351  Gnorm:      0.062287  CPU:    0.278
  Cycle:     13 Energy:      -421.357436  Gnorm:      0.040803  CPU:    0.289
  Cycle:     14 Energy:      -421.364444  Gnorm:      0.044178  CPU:    0.303
  Cycle:     15 Energy:      -421.373359  Gnorm:      0.060106  CPU:    0.321
  Cycle:     16 Energy:      -421.380948  Gnorm:      0.034436  CPU:    0.338
  Cycle:     17 Energy:      -421.387732  Gnorm:      0.036413  CPU:    0.356
  Cycle:     18 Energy:      -421.392591  Gnorm:      0.043280  CPU:    0.382
  Cycle:     19 Energy:      -421.399347  Gnorm:      0.036748  CPU:    0.391
  Cycle:     20 Energy:      -421.405207  Gnorm:      0.034066  CPU:    0.415
  Cycle:     21 Energy:      -421.410521  Gnorm:      0.028665  CPU:    0.425
  Cycle:     22 Energy:      -421.415972  Gnorm:      0.034395  CPU:    0.431
  Cycle:     23 Energy:      -421.420601  Gnorm:      0.034702  CPU:    0.456
  Cycle:     24 Energy:      -421.424529  Gnorm:      0.025204  CPU:    0.465
  Cycle:     25 Energy:      -421.428344  Gnorm:      0.024808  CPU:    0.472
  Cycle:     26 Energy:      -421.431407  Gnorm:      0.030424  CPU:    0.498
  Cycle:     27 Energy:      -421.434222  Gnorm:      0.021493  CPU:    0.506
  Cycle:     28 Energy:      -421.436687  Gnorm:      0.031562  CPU:    0.518
  Cycle:     29 Energy:      -421.438348  Gnorm:      0.019358  CPU:    0.540
  Cycle:     30 Energy:      -421.439834  Gnorm:      0.017687  CPU:    0.547
  Cycle:     31 Energy:      -421.441848  Gnorm:      0.017949  CPU:    0.562
  Cycle:     32 Energy:      -421.443496  Gnorm:      0.022584  CPU:    0.581
  Cycle:     33 Energy:      -421.444065  Gnorm:      0.033897  CPU:    0.595
  Cycle:     34 Energy:      -421.445302  Gnorm:      0.011005  CPU:    0.616
  Cycle:     35 Energy:      -421.445700  Gnorm:      0.010381  CPU:    0.641
  Cycle:     36 Energy:      -421.446425  Gnorm:      0.012638  CPU:    0.660
  Cycle:     37 Energy:      -421.447135  Gnorm:      0.021746  CPU:    0.677
  Cycle:     38 Energy:      -421.447858  Gnorm:      0.009611  CPU:    0.684
  Cycle:     39 Energy:      -421.448191  Gnorm:      0.007345  CPU:    0.707
  Cycle:     40 Energy:      -421.448603  Gnorm:      0.009436  CPU:    0.719
  Cycle:     41 Energy:      -421.448870  Gnorm:      0.012369  CPU:    0.744
  Cycle:     42 Energy:      -421.449283  Gnorm:      0.008247  CPU:    0.752
  Cycle:     43 Energy:      -421.449343  Gnorm:      0.013600  CPU:    0.768
  Cycle:     44 Energy:      -421.449708  Gnorm:      0.009036  CPU:    0.786
  Cycle:     45 Energy:      -421.449902  Gnorm:      0.006934  CPU:    0.793
  Cycle:     46 Energy:      -421.450136  Gnorm:      0.006976  CPU:    0.814
  Cycle:     47 Energy:      -421.450632  Gnorm:      0.011742  CPU:    0.827
  Cycle:     48 Energy:      -421.450903  Gnorm:      0.009834  CPU:    0.841
  Cycle:     49 Energy:      -421.451138  Gnorm:      0.007552  CPU:    0.864
  Cycle:     50 Energy:      -421.451563  Gnorm:      0.009280  CPU:    0.872
  Cycle:     51 Energy:      -421.451827  Gnorm:      0.012487  CPU:    0.888
  Cycle:     52 Energy:      -421.452121  Gnorm:      0.008325  CPU:    0.906
  Cycle:     53 Energy:      -421.452440  Gnorm:      0.006073  CPU:    0.933
  Cycle:     54 Energy:      -421.452678  Gnorm:      0.009031  CPU:    0.941
  Cycle:     55 Energy:      -421.452944  Gnorm:      0.007911  CPU:    0.954
  Cycle:     56 Energy:      -421.453337  Gnorm:      0.007809  CPU:    0.975
  Cycle:     57 Energy:      -421.453560  Gnorm:      0.017803  CPU:    0.982
  Cycle:     58 Energy:      -421.453976  Gnorm:      0.008165  CPU:    0.998
  Cycle:     59 Energy:      -421.454270  Gnorm:      0.007328  CPU:    1.016
  Cycle:     60 Energy:      -421.454653  Gnorm:      0.009374  CPU:    1.043
  Cycle:     61 Energy:      -421.455139  Gnorm:      0.015751  CPU:    1.051
  Cycle:     62 Energy:      -421.455628  Gnorm:      0.010253  CPU:    1.075
  Cycle:     63 Energy:      -421.455933  Gnorm:      0.006866  CPU:    1.085
  Cycle:     64 Energy:      -421.456225  Gnorm:      0.008098  CPU:    1.091
  Cycle:     65 Energy:      -421.456575  Gnorm:      0.011095  CPU:    1.117
  Cycle:     66 Energy:      -421.456884  Gnorm:      0.010009  CPU:    1.136
  Cycle:     67 Energy:      -421.457102  Gnorm:      0.006470  CPU:    1.152
  Cycle:     68 Energy:      -421.457288  Gnorm:      0.006481  CPU:    1.177
  Cycle:     69 Energy:      -421.457452  Gnorm:      0.006323  CPU:    1.186
  Cycle:     70 Energy:      -421.457607  Gnorm:      0.017231  CPU:    1.209
  Cycle:     71 Energy:      -421.457911  Gnorm:      0.005085  CPU:    1.219
  Cycle:     72 Energy:      -421.457989  Gnorm:      0.003805  CPU:    1.238
  Cycle:     73 Energy:      -421.458088  Gnorm:      0.004241  CPU:    1.252
  Cycle:     74 Energy:      -421.458188  Gnorm:      0.006890  CPU:    1.259
  Cycle:     75 Energy:      -421.458275  Gnorm:      0.004209  CPU:    1.283
  Cycle:     76 Energy:      -421.458320  Gnorm:      0.002799  CPU:    1.296
  Cycle:     77 Energy:      -421.458358  Gnorm:      0.003100  CPU:    1.320
  Cycle:     78 Energy:      -421.458405  Gnorm:      0.003931  CPU:    1.328
  Cycle:     79 Energy:      -421.458448  Gnorm:      0.004604  CPU:    1.351
  Cycle:     80 Energy:      -421.458485  Gnorm:      0.002505  CPU:    1.360
  Cycle:     81 Energy:      -421.458511  Gnorm:      0.002703  CPU:    1.387
  Cycle:     82 Energy:      -421.458546  Gnorm:      0.002858  CPU:    1.396
  Cycle:     83 Energy:      -421.458565  Gnorm:      0.006781  CPU:    1.410
  Cycle:     84 Energy:      -421.458618  Gnorm:      0.002096  CPU:    1.427
  Cycle:     85 Energy:      -421.458632  Gnorm:      0.001626  CPU:    1.453
  Cycle:     86 Energy:      -421.458653  Gnorm:      0.001893  CPU:    1.468
  Cycle:     87 Energy:      -421.458676  Gnorm:      0.003494  CPU:    1.487
  Cycle:     88 Energy:      -421.458700  Gnorm:      0.001863  CPU:    1.494
  Cycle:     89 Energy:      -421.458717  Gnorm:      0.001549  CPU:    1.517
  Cycle:     90 Energy:      -421.458732  Gnorm:      0.002723  CPU:    1.528
  Cycle:     91 Energy:      -421.458743  Gnorm:      0.002039  CPU:    1.535
  Cycle:     92 Energy:      -421.458750  Gnorm:      0.001229  CPU:    1.560
  Cycle:     93 Energy:      -421.458758  Gnorm:      0.000956  CPU:    1.580
  Cycle:     94 Energy:      -421.458764  Gnorm:      0.001129  CPU:    1.596
  Cycle:     95 Energy:      -421.458769  Gnorm:      0.002085  CPU:    1.610
  Cycle:     96 Energy:      -421.458775  Gnorm:      0.000907  CPU:    1.630
  Cycle:     97 Energy:      -421.458778  Gnorm:      0.000776  CPU:    1.638
  Cycle:     98 Energy:      -421.458783  Gnorm:      0.000915  CPU:    1.657
  Cycle:     99 Energy:      -421.458787  Gnorm:      0.001280  CPU:    1.672
  Cycle:    100 Energy:      -421.458791  Gnorm:      0.000928  CPU:    1.679
  Cycle:    101 Energy:      -421.458795  Gnorm:      0.000812  CPU:    1.702
  Cycle:    102 Energy:      -421.458799  Gnorm:      0.001003  CPU:    1.717
  Cycle:    103 Energy:      -421.458803  Gnorm:      0.000913  CPU:    1.740
  Cycle:    104 Energy:      -421.458807  Gnorm:      0.001343  CPU:    1.747
  Cycle:    105 Energy:      -421.458811  Gnorm:      0.001044  CPU:    1.763
  Cycle:    106 Energy:      -421.458814  Gnorm:      0.000957  CPU:    1.781
  Cycle:    107 Energy:      -421.458821  Gnorm:      0.001317  CPU:    1.795
  Cycle:    108 Energy:      -421.458826  Gnorm:      0.001767  CPU:    1.815
  Cycle:    109 Energy:      -421.458831  Gnorm:      0.000941  CPU:    1.841
  Cycle:    110 Energy:      -421.458836  Gnorm:      0.000853  CPU:    1.850
  Cycle:    111 Energy:      -421.458840  Gnorm:      0.000964  CPU:    1.866
  Cycle:    112 Energy:      -421.458843  Gnorm:      0.002248  CPU:    1.883
  Cycle:    113 Energy:      -421.458849  Gnorm:      0.000745  CPU:    1.907
  Cycle:    114 Energy:      -421.458851  Gnorm:      0.000643  CPU:    1.922
  Cycle:    115 Energy:      -421.458855  Gnorm:      0.000668  CPU:    1.942
  Cycle:    116 Energy:      -421.458857  Gnorm:      0.001468  CPU:    1.949
  Cycle:    117 Energy:      -421.458860  Gnorm:      0.000560  CPU:    1.971
  Cycle:    118 Energy:      -421.458861  Gnorm:      0.000392  CPU:    1.983
  Cycle:    119 Energy:      -421.458862  Gnorm:      0.000592  CPU:    2.008
  Cycle:    120 Energy:      -421.458863  Gnorm:      0.000576  CPU:    2.016
  Cycle:    121 Energy:      -421.458864  Gnorm:      0.000378  CPU:    2.026
  Cycle:    122 Energy:      -421.458865  Gnorm:      0.000290  CPU:    2.049
  Cycle:    123 Energy:      -421.458865  Gnorm:      0.000318  CPU:    2.057
  Cycle:    124 Energy:      -421.458866  Gnorm:      0.000337  CPU:    2.074
  Cycle:    125 Energy:      -421.458866  Gnorm:      0.000334  CPU:    2.091
  Cycle:    126 Energy:      -421.458866  Gnorm:      0.000234  CPU:    2.109
  Cycle:    127 Energy:      -421.458866  Gnorm:      0.000179  CPU:    2.126
  Cycle:    128 Energy:      -421.458867  Gnorm:      0.000254  CPU:    2.145
  Cycle:    129 Energy:      -421.458867  Gnorm:      0.000177  CPU:    2.161


  **** Optimisation achieved ****


  Final energy =    -421.45886695 eV
  Final Gnorm  =       0.00013425

  Components of energy : 

--------------------------------------------------------------------------------
  Interatomic potentials     =           0.00000000 eV    
  Brenner potentials         =        -421.45886695 eV    
  Monopole - monopole (real) =           0.00000000 eV    
  Monopole - monopole (recip)=           0.00000000 eV    
  Monopole - monopole (total)=           0.00000000 eV    
--------------------------------------------------------------------------------
  Total lattice energy       =        -421.45886695 eV    
--------------------------------------------------------------------------------
  Total lattice energy       =          -40664.3381 kJ/(mole unit cells)
--------------------------------------------------------------------------------

  Final fractional coordinates of atoms :

--------------------------------------------------------------------------------
   No.  Atomic        x           y          z          Radius
        Label       (Frac)      (Frac)     (Frac)       (Angs) 
--------------------------------------------------------------------------------
     1  C     c     0.476040    0.519880    0.065020    0.000000
     2  C     c     0.407974    0.736291    0.310371    0.000000
     3  C     c     0.290367    0.263227    0.910346    0.000000
     4  C     c     0.103822    0.007764    0.619329    0.000000
     5  C     c     0.955711    0.855225    0.885268    0.000000
     6  C     c     0.796404    0.476271    0.584557    0.000000
     7  C     c     0.617165    0.411099    0.680149    0.000000
     8  C     c     0.786627    0.713398    0.343408    0.000000
     9  C     c     0.885487    0.241886    0.329148    0.000000
    10  C     c     0.689584    0.157904    0.144901    0.000000
    11  C     c     0.868854    0.033506    0.365382    0.000000
    12  C     c     0.950304    0.931316    0.525440    0.000000
    13  C     c     0.517535    0.058099    0.153741    0.000000
    14  C     c     0.548545    0.977631    0.499182    0.000000
    15  C     c     0.468580    0.329747    0.001320    0.000000
    16  C     c     0.950347    0.349251    0.491501    0.000000
    17  C     c     0.159007    0.419673    0.833755    0.000000
    18  C     c     0.829362    0.735374    0.816008    0.000000
    19  C     c     0.909652    0.945610    0.040854    0.000000
    20  C     c     0.143828    0.916034    0.801104    0.000000
    21  C     c     0.869351    0.648723    0.658683    0.000000
    22  C     c     0.889843    0.124486    0.730792    0.000000
    23  C     c     0.495892    0.594672    0.414179    0.000000
    24  C     c     0.650972    0.704796    0.885570    0.000000
    25  C     c     0.640455    0.585607    0.027537    0.000000
    26  C     c     0.787538    0.978729    0.717977    0.000000
    27  C     c     0.476076    0.451454    0.577647    0.000000
    28  C     c     0.359525    0.636684    0.142670    0.000000
    29  C     c     0.588868    0.954295    0.694764    0.000000
    30  C     c     0.716482    0.338123    0.234419    0.000000
    31  C     c     0.011379    0.199462    0.156998    0.000000
    32  C     c     0.971282    0.393607    0.899541    0.000000
    33  C     c     0.502935    0.789275    0.791082    0.000000
    34  C     c     0.852208    0.134211    0.039102    0.000000
    35  C     c     0.353799    0.177495    0.714474    0.000000
    36  C     c     0.114418    0.477691    0.452337    0.000000
    37  C     c     0.186482    0.171261    0.082466    0.000000
    38  C     c     0.281996    0.397103    0.519078    0.000000
    39  C     c     0.099748    0.672460    0.423905    0.000000
    40  C     c     0.932500    0.497312    0.040870    0.000000
    41  C     c     0.835760    0.242752    0.876303    0.000000
    42  C     c     0.378617    0.216228    0.169532    0.000000
    43  C     c     0.392565    0.114427    0.512068    0.000000
    44  C     c     0.976488    0.709270    0.270748    0.000000
    45  C     c     0.397255    0.277498    0.373061    0.000000
    46  C     c     0.561984    0.397870    0.341336    0.000000
    47  C     c     0.305252    0.764858    0.793225    0.000000
    48  C     c     0.920105    0.894540    0.215455    0.000000
    49  C     c     0.766187    0.483404    0.107692    0.000000
    50  C     c     0.252539    0.802961    0.417721    0.000000
    51  C     c     0.702654    0.553137    0.416057    0.000000
    52  C     c     0.954853    0.748584    0.536626    0.000000
    53  C     c     0.228536    0.605565    0.870071    0.000000
    54  C     c     0.039623    0.614907    0.118256    0.000000
    55  C     c     0.625047    0.285059    0.850403    0.000000
    56  C     c     0.437025    0.017029    0.972568    0.000000
    57  C     c     0.518961    0.911200    0.290916    0.000000
    58  C     c     0.203923    0.638937    0.052858    0.000000
    59  C     c     0.036340    0.208723    0.618041    0.000000
    60  C     c     0.255526    0.959618    0.496669    0.000000
    61  C     c     0.711473    0.893747    0.375903    0.000000
    62  C     c     0.241320    0.013450    0.956456    0.000000
    63  C     c     0.514827    0.101788    0.812069    0.000000
    64  C     c     0.198862    0.304060    0.673164    0.000000
--------------------------------------------------------------------------------

  Final internal derivatives :

--------------------------------------------------------------------------------
   No.  Atomic          a             b             c           Radius
        Label          (eV)          (eV)          (eV)        (eV/Angs)
--------------------------------------------------------------------------------
      1 C     c       0.000000      0.000000      0.000000      0.000000
      2 C     c       0.001623     -0.000974     -0.000007      0.000000
      3 C     c      -0.003115     -0.004435      0.001712      0.000000
      4 C     c      -0.000136      0.000521      0.002052      0.000000
      5 C     c       0.001543     -0.004130      0.000498      0.000000
      6 C     c      -0.003756      0.000729      0.001224      0.000000
      7 C     c       0.000394      0.001233      0.000191      0.000000
      8 C     c       0.000478      0.004097      0.002508      0.000000
      9 C     c       0.000073     -0.001404     -0.000143      0.000000
     10 C     c      -0.002208     -0.003069     -0.001971      0.000000
     11 C     c       0.003828      0.002753      0.000592      0.000000
     12 C     c      -0.000147     -0.001259     -0.000204      0.000000
     13 C     c       0.000456     -0.000385     -0.000444      0.000000
     14 C     c       0.001357      0.000550      0.001800      0.000000
     15 C     c       0.000926     -0.000807     -0.002430      0.000000
     16 C     c       0.004423     -0.001479     -0.005867      0.000000
     17 C     c       0.000111     -0.001633     -0.000991      0.000000
     18 C     c       0.000250     -0.004344      0.000425      0.000000
     19 C     c       0.001667      0.000430     -0.001120      0.000000
     20 C     c       0.002170      0.002682      0.001128      0.000000
     21 C     c       0.000063     -0.001761     -0.001912      0.000000
     22 C     c       0.000797      0.000154     -0.002154      0.000000
     23 C     c       0.001667      0.000647     -0.000903      0.000000
     24 C     c      -0.001252      0.000774     -0.000794      0.000000
     25 C     c       0.000602      0.000188      0.000241      0.000000
     26 C     c      -0.000875      0.000679     -0.001571      0.000000
     27 C     c       0.000242     -0.000214      0.001256      0.000000
     28 C     c       0.001365      0.000355     -0.000128      0.000000
     29 C     c      -0.003232      0.000058     -0.000692      0.000000
     30 C     c       0.003481     -0.000874     -0.001374      0.000000
     31 C     c      -0.000191     -0.002517     -0.001408      0.000000
     32 C     c       0.000705      0.001002      0.001365      0.000000
     33 C     c       0.000159     -0.001187     -0.002161      0.000000
     34 C     c      -0.001155      0.000736     -0.001029      0.000000
     35 C     c      -0.001331     -0.002979      0.001600      0.000000
     36 C     c      -0.000177     -0.002153      0.001753      0.000000
     37 C     c      -0.000150      0.001306     -0.001535      0.000000
     38 C     c       0.002787      0.000827     -0.000995      0.000000
     39 C     c       0.003179     -0.000374      0.002150      0.000000
     40 C     c      -0.000109     -0.000027     -0.000214      0.000000
     41 C     c      -0.001440     -0.002034     -0.002064      0.000000
     42 C     c       0.002025     -0.000296      0.001310      0.000000
     43 C     c       0.000019     -0.000947     -0.003907      0.000000
     44 C     c       0.002334     -0.003562     -0.000048      0.000000
     45 C     c       0.000982     -0.001578     -0.000705      0.000000
     46 C     c       0.002338     -0.000299      0.000975      0.000000
     47 C     c       0.002320     -0.000712     -0.001256      0.000000
     48 C     c       0.000153      0.002404      0.002556      0.000000
     49 C     c       0.000755     -0.001866     -0.001600      0.000000
     50 C     c       0.000401      0.000707     -0.001340      0.000000
     51 C     c       0.003756     -0.002256     -0.000607      0.000000
     52 C     c      -0.001445     -0.001796     -0.004241      0.000000
     53 C     c      -0.001472     -0.001734     -0.001272      0.000000
     54 C     c       0.001095     -0.004189      0.000815      0.000000
     55 C     c      -0.000318     -0.000902      0.000477      0.000000
     56 C     c       0.000267     -0.001345     -0.000409      0.000000
     57 C     c       0.004539      0.001872      0.000274      0.000000
     58 C     c       0.000184      0.000358      0.000564      0.000000
     59 C     c      -0.000863     -0.000731     -0.001877      0.000000
     60 C     c      -0.000478      0.000312     -0.001465      0.000000
     61 C     c      -0.002617     -0.000677     -0.004183      0.000000
     62 C     c       0.002209      0.003117     -0.001293      0.000000
     63 C     c       0.000308     -0.004074      0.000402      0.000000
     64 C     c      -0.002759     -0.001456     -0.002017      0.000000
--------------------------------------------------------------------------------
  Maximum abs         0.004539      0.004435      0.005867      0.000000
--------------------------------------------------------------------------------


  Time to end of optimisation =       2.1690 seconds


  Peak dynamic memory used =       2.01 MB 


  Timing analysis for GULP :

--------------------------------------------------------------------------------
  Task / Subroutine                                          Time (Seconds)
--------------------------------------------------------------------------------
  Calculation of Brenner energy and derivatives                   2.1208
--------------------------------------------------------------------------------
  Total CPU time                                                  2.1691
--------------------------------------------------------------------------------


  CIF file written as opti_1.0300.cif


  Job Finished at 22:04.44 30th July       2020                               

