********************************************************************************
*                       GENERAL UTILITY LATTICE PROGRAM                        *
*                                 Julian Gale                                  *
*                       Curtin Institute for Computation                       *
*                    School of Molecular and Life Sciences                     *
*                    Curtin University, Western Australia                      *
********************************************************************************
* Version = 5.2.0 * Last modified =  17th December 2019                        *
********************************************************************************
*  single       - perform a single point run                                   *
*  md           - perform molecular dynamics run                               *
*  conp         - constant pressure calculation                                *
*  isotropic    - only isotropic cell expansion to be allowed                  *
********************************************************************************
* ASE calculation                                                              *
********************************************************************************


  Job Started  at 21:40.41 30th July       2020                               

  Number of CPUs =     1


  Total number of configurations input =      1

********************************************************************************
*  Input for Configuration =   1                                               *
********************************************************************************

  Formula = C64                                                         

  Number of irreducible atoms/shells =      64


  Total number atoms/shells =      64

  Dimensionality = 3               :  Bulk   



  Cartesian lattice vectors (Angstroms) :

        7.089500    0.000000    0.000000
        0.000000    7.089500    0.000000
        0.000000    0.000000    7.089500

  Cell parameters (Angstroms/Degrees):

  a =       7.0895    alpha =  90.0000
  b =       7.0895    beta  =  90.0000
  c =       7.0895    gamma =  90.0000

  Initial cell volume =         356.325432 Angs**3

  Temperature of configuration =   50.0     K 

  Pressure of configuration =         0.000 GPa 

  Fractional coordinates of asymmetric unit :

--------------------------------------------------------------------------------
   No.  Atomic       x           y          z         Charge      Occupancy
        Label      (Frac)      (Frac)     (Frac)        (e)         (Frac)  
--------------------------------------------------------------------------------
      1 C     c    0.503435 *  0.631681 *  0.094577 *   0.00000    1.000000    
      2 C     c    0.451851 *  0.762282 *  0.360251 *   0.00000    1.000000    
      3 C     c    0.389745 *  0.322463 *  0.965061 *   0.00000    1.000000    
      4 C     c    0.154412 *  0.059539 *  0.688201 *   0.00000    1.000000    
      5 C     c    0.026927 *  0.873771 *  0.910953 *   0.00000    1.000000    
      6 C     c    0.840228 *  0.507666 *  0.667226 *   0.00000    1.000000    
      7 C     c    0.616630 *  0.437591 *  0.728570 *   0.00000    1.000000    
      8 C     c    0.831779 *  0.734537 *  0.357190 *   0.00000    1.000000    
      9 C     c    0.998039 *  0.295155 *  0.352606 *   0.00000    1.000000    
     10 C     c    0.744848 *  0.196121 *  0.173778 *   0.00000    1.000000    
     11 C     c    0.966528 *  0.057084 *  0.387065 *   0.00000    1.000000    
     12 C     c    0.014528 *  0.956795 *  0.572015 *   0.00000    1.000000    
     13 C     c    0.586219 *  0.096692 *  0.200804 *   0.00000    1.000000    
     14 C     c    0.596728 *  0.044827 *  0.554524 *   0.00000    1.000000    
     15 C     c    0.525792 *  0.394908 *  0.036674 *   0.00000    1.000000    
     16 C     c    0.988363 *  0.342591 *  0.585288 *   0.00000    1.000000    
     17 C     c    0.237859 *  0.427534 *  0.878440 *   0.00000    1.000000    
     18 C     c    0.911785 *  0.694816 *  0.898864 *   0.00000    1.000000    
     19 C     c    0.932774 *  0.979392 *  0.107017 *   0.00000    1.000000    
     20 C     c    0.236279 *  0.882615 *  0.828775 *   0.00000    1.000000    
     21 C     c    0.952747 *  0.617364 *  0.755483 *   0.00000    1.000000    
     22 C     c    0.879089 *  0.156245 *  0.758841 *   0.00000    1.000000    
     23 C     c    0.541096 *  0.684872 *  0.541026 *   0.00000    1.000000    
     24 C     c    0.737725 *  0.764257 *  0.881585 *   0.00000    1.000000    
     25 C     c    0.675802 *  0.706270 *  0.088116 *   0.00000    1.000000    
     26 C     c    0.821285 *  0.995430 *  0.736328 *   0.00000    1.000000    
     27 C     c    0.475591 *  0.545934 *  0.633669 *   0.00000    1.000000    
     28 C     c    0.348685 *  0.741886 *  0.172664 *   0.00000    1.000000    
     29 C     c    0.604401 *  0.950518 *  0.720178 *   0.00000    1.000000    
     30 C     c    0.821454 *  0.378518 *  0.253135 *   0.00000    1.000000    
     31 C     c    0.110868 *  0.215657 *  0.169053 *   0.00000    1.000000    
     32 C     c    0.022935 *  0.396389 *  0.875619 *   0.00000    1.000000    
     33 C     c    0.560702 *  0.788984 *  0.768305 *   0.00000    1.000000    
     34 C     c    0.913055 *  0.143621 *  0.057155 *   0.00000    1.000000    
     35 C     c    0.419155 *  0.218774 *  0.726257 *   0.00000    1.000000    
     36 C     c    0.180803 *  0.466211 *  0.509415 *   0.00000    1.000000    
     37 C     c    0.336554 *  0.171634 *  0.132252 *   0.00000    1.000000    
     38 C     c    0.305085 *  0.451245 *  0.605346 *   0.00000    1.000000    
     39 C     c    0.143593 *  0.694238 *  0.464772 *   0.00000    1.000000    
     40 C     c    0.959348 *  0.475788 *  0.027788 *   0.00000    1.000000    
     41 C     c    0.874110 *  0.240017 *  0.927061 *   0.00000    1.000000    
     42 C     c    0.465251 *  0.289597 *  0.220255 *   0.00000    1.000000    
     43 C     c    0.451597 *  0.165287 *  0.561069 *   0.00000    1.000000    
     44 C     c    0.983680 *  0.704196 *  0.285112 *   0.00000    1.000000    
     45 C     c    0.451710 *  0.367050 *  0.438945 *   0.00000    1.000000    
     46 C     c    0.645871 *  0.425813 *  0.428549 *   0.00000    1.000000    
     47 C     c    0.335976 *  0.740743 *  0.818535 *   0.00000    1.000000    
     48 C     c    0.040821 *  0.922674 *  0.267790 *   0.00000    1.000000    
     49 C     c    0.838268 *  0.518767 *  0.118880 *   0.00000    1.000000    
     50 C     c    0.262868 *  0.818393 *  0.433331 *   0.00000    1.000000    
     51 C     c    0.738656 *  0.610692 *  0.501657 *   0.00000    1.000000    
     52 C     c    0.065435 *  0.745201 *  0.627914 *   0.00000    1.000000    
     53 C     c    0.259059 *  0.545596 *  0.920037 *   0.00000    1.000000    
     54 C     c    0.079611 *  0.597235 *  0.220523 *   0.00000    1.000000    
     55 C     c    0.689541 *  0.266211 *  0.905029 *   0.00000    1.000000    
     56 C     c    0.506228 *  0.985655 *  0.031582 *   0.00000    1.000000    
     57 C     c    0.578475 *  0.959264 *  0.346146 *   0.00000    1.000000    
     58 C     c    0.204373 *  0.700261 *  0.115974 *   0.00000    1.000000    
     59 C     c    0.980422 *  0.208985 *  0.661217 *   0.00000    1.000000    
     60 C     c    0.273517 *  0.047338 *  0.533465 *   0.00000    1.000000    
     61 C     c    0.774907 *  0.940983 *  0.367614 *   0.00000    1.000000    
     62 C     c    0.300106 *  0.956429 *  0.035630 *   0.00000    1.000000    
     63 C     c    0.542760 *  0.065153 *  0.847352 *   0.00000    1.000000    
     64 C     c    0.290754 *  0.313210 *  0.710699 *   0.00000    1.000000    
--------------------------------------------------------------------------------


  Constraints : 

--------------------------------------------------------------------------------
  Constraint no.      Unconstrained     Constrained    Coefficient    Offset
                         Variable         Variable
--------------------------------------------------------------------------------
           1              Strain 1        Strain 2       1.00000      0.0000
           2              Strain 1        Strain 3       1.00000      0.0000
--------------------------------------------------------------------------------


********************************************************************************
*  General input information                                                   *
********************************************************************************

  Species output for all configurations : 

--------------------------------------------------------------------------------
  Species    Type    Atomic    Atomic    Charge       Radii (Angs)     Library
                     Number     Mass       (e)     Cova   Ionic  VDW   Symbol
--------------------------------------------------------------------------------
    C        Core        6      12.01   0.000000   0.770  0.000  1.530          
--------------------------------------------------------------------------------


  Lattice summation method               =    Ewald          (3-D)
                                         =    Parry          (2-D)
                                         =    Saunders et al (1-D)
  Accuracy factor for lattice sums       =   12.000


  Analytic derivatives to be used

  Time limit = Infinity

  Maximum range for interatomic potentials =    100000.000000 Angstroms

  Brenner et al 2002 potential to be used with explicit splines for P


********************************************************************************
*  Output for configuration   1                                                *
********************************************************************************


  Components of energy : 

--------------------------------------------------------------------------------
  Interatomic potentials     =           0.00000000 eV    
  Brenner potentials         =        -180.18552926 eV    
  Monopole - monopole (real) =           0.00000000 eV    
  Monopole - monopole (recip)=           0.00000000 eV    
  Monopole - monopole (total)=           0.00000000 eV    
--------------------------------------------------------------------------------
  Total lattice energy       =        -180.18552926 eV    
--------------------------------------------------------------------------------
  Total lattice energy       =          -17385.1492 kJ/(mole unit cells)
--------------------------------------------------------------------------------

  Equations of motion will be integrated using the leapfrog Verlet algorithm.

********************************************************************************
*  Molecular Dynamics                                                          *
********************************************************************************

  Isothermal/baric ensemble (NPT) to be used

  Friction for temperature bath =           0.000500
  Friction for pressure    bath =           0.000500

  No. of mobile ions        =                 64

  No. of degrees of freedom =                189

  Time step                 =           0.000100 ps
  Equilibration time        =           5.000000 ps
  Production time           =           0.000000 ps
  Scaling time              =           5.000000 ps
  Scaling frequency         =           0.000100 ps
  Sampling frequency        =           0.005000 ps
  Write frequency           =           0.002000 ps
  TD-Force start time       =           0.000000 ps
  TD-Field start time       =           0.000000 ps



  Molecular dynamics equilibration :

  ** Time :            0.00500 ps :
     Properties:                   Instantaneous       Averaged
       Kinetic energy    (eV) =       0.722318          0.722318
       Potential energy  (eV) =    -284.026886       -284.026886
       Total energy      (eV) =    -283.304568       -283.304568
       Temperature       (K)  =      88.699932         88.699932
       Pressure         (GPa) =     216.620921        216.620921
       Cell parameter : a (A) =       7.131120          7.131120
       Cell parameter : b (A) =       7.136828          7.136828
       Cell parameter : c (A) =       7.129139          7.129139
       Cell angle : alpha (o) =      89.978163         89.978163
       Cell angle : beta  (o) =      90.030913         90.030913
       Cell angle : gamma (o) =      90.043071         90.043071
       Cell volume :   (A**3) =     362.827212        362.827212
  ** Time :            0.01000 ps :
     Properties:                   Instantaneous       Averaged
       Kinetic energy    (eV) =       0.593556          0.657937
       Potential energy  (eV) =    -320.638660       -302.332773
       Total energy      (eV) =    -320.045104       -301.674836
       Temperature       (K)  =      72.888115         80.794024
       Pressure         (GPa) =     146.937472        180.595173
       Cell parameter : a (A) =       7.157942          7.144531
       Cell parameter : b (A) =       7.163145          7.149986
       Cell parameter : c (A) =       7.154549          7.141844
       Cell angle : alpha (o) =      89.965570         89.971866
       Cell angle : beta  (o) =      90.062944         90.046929
       Cell angle : gamma (o) =      90.061924         90.052497
       Cell volume :   (A**3) =     366.837388        364.832300
  ** Time :            0.01500 ps :
     Properties:                   Instantaneous       Averaged
       Kinetic energy    (eV) =       0.532827          0.616234
       Potential energy  (eV) =    -341.667747       -315.444431
       Total energy      (eV) =    -341.134920       -314.828197
       Temperature       (K)  =      65.430637         75.672895
       Pressure         (GPa) =     109.937619        156.088699
       Cell parameter : a (A) =       7.178324          7.155795
       Cell parameter : b (A) =       7.180966          7.160313
       Cell parameter : c (A) =       7.173375          7.152354
       Cell angle : alpha (o) =      89.954445         89.966059
       Cell angle : beta  (o) =      90.091522         90.061793
       Cell angle : gamma (o) =      90.071247         90.058747
       Cell volume :   (A**3) =     369.767216        366.477272
  ** Time :            0.02000 ps :
     Properties:                   Instantaneous       Averaged
       Kinetic energy    (eV) =       0.498775          0.586869
       Potential energy  (eV) =    -355.464338       -325.449408
       Total energy      (eV) =    -354.965563       -324.862539
       Temperature       (K)  =      61.249035         72.066930
       Pressure         (GPa) =      86.806663        138.050444
       Cell parameter : a (A) =       7.194881          7.165567
       Cell parameter : b (A) =       7.193798          7.168684
       Cell parameter : c (A) =       7.188180          7.161311
       Cell angle : alpha (o) =      89.944937         89.960779
       Cell angle : beta  (o) =      90.117529         90.075727
       Cell angle : gamma (o) =      90.075930         90.063043
       Cell volume :   (A**3) =     372.048279        367.870024
  ** Time :            0.02500 ps :
     Properties:                   Instantaneous       Averaged
       Kinetic energy    (eV) =       0.477423          0.564980
       Potential energy  (eV) =    -365.295548       -333.418636
       Total energy      (eV) =    -364.818125       -332.853656
       Temperature       (K)  =      58.627126         69.378969
       Pressure         (GPa) =      72.664893        124.419902
       Cell parameter : a (A) =       7.208747          7.174203
       Cell parameter : b (A) =       7.203813          7.175710
       Cell parameter : c (A) =       7.200470          7.169143
       Cell angle : alpha (o) =      89.937097         89.956042
       Cell angle : beta  (o) =      90.139224         90.088426
       Cell angle : gamma (o) =      90.078394         90.066113
       Cell volume :   (A**3) =     373.922054        369.080430
  ** Time :            0.03000 ps :
     Properties:                   Instantaneous       Averaged
       Kinetic energy    (eV) =       0.463779          0.548113
       Potential energy  (eV) =    -372.716370       -339.968258
       Total energy      (eV) =    -372.252591       -339.420145
       Temperature       (K)  =      56.951568         67.307736
       Pressure         (GPa) =      62.832348        113.710218
       Cell parameter : a (A) =       7.220748          7.181960
       Cell parameter : b (A) =       7.212133          7.181780
       Cell parameter : c (A) =       7.211173          7.176148
       Cell angle : alpha (o) =      89.930356         89.951761
       Cell angle : beta  (o) =      90.156852         90.099831
       Cell angle : gamma (o) =      90.080116         90.068447
       Cell volume :   (A**3) =     375.534147        370.156049
  ** Time :            0.03500 ps :
     Properties:                   Instantaneous       Averaged
       Kinetic energy    (eV) =       0.454670          0.534764
       Potential energy  (eV) =    -378.652537       -345.494584
       Total energy      (eV) =    -378.197867       -344.959820
       Temperature       (K)  =      55.832972         65.668484
       Pressure         (GPa) =      54.968560        104.953223
       Cell parameter : a (A) =       7.231271          7.189005
       Cell parameter : b (A) =       7.219150          7.187119
       Cell parameter : c (A) =       7.220751          7.182520
       Cell angle : alpha (o) =      89.924574         89.947877
       Cell angle : beta  (o) =      90.171266         90.110036
       Cell angle : gamma (o) =      90.081690         90.070339
       Cell volume :   (A**3) =     376.947053        371.126193
  ** Time :            0.04000 ps :
     Properties:                   Instantaneous       Averaged
       Kinetic energy    (eV) =       0.445714          0.523633
       Potential energy  (eV) =    -383.554409       -350.252062
       Total energy      (eV) =    -383.108695       -349.728429
       Temperature       (K)  =      54.733229         64.301577
       Pressure         (GPa) =      50.128256         97.792483
       Cell parameter : a (A) =       7.240680          7.195464
       Cell parameter : b (A) =       7.225233          7.191883
       Cell parameter : c (A) =       7.229520          7.188395
       Cell angle : alpha (o) =      89.919337         89.944310
       Cell angle : beta  (o) =      90.183780         90.119254
       Cell angle : gamma (o) =      90.083076         90.071931
       Cell volume :   (A**3) =     378.213963        372.012164
  ** Time :            0.04500 ps :
     Properties:                   Instantaneous       Averaged
       Kinetic energy    (eV) =       0.438098          0.514129
       Potential energy  (eV) =    -387.501884       -354.390931
       Total energy      (eV) =    -387.063786       -353.876802
       Temperature       (K)  =      53.797951         63.134507
       Pressure         (GPa) =      46.889747         91.866104
       Cell parameter : a (A) =       7.249360          7.201453
       Cell parameter : b (A) =       7.230802          7.196207
       Cell parameter : c (A) =       7.237834          7.193888
       Cell angle : alpha (o) =      89.913735         89.940913
       Cell angle : beta  (o) =      90.196475         90.127834
       Cell angle : gamma (o) =      90.084510         90.073329
       Cell volume :   (A**3) =     379.394655        372.832441
  ** Time :            0.05000 ps :
     Properties:                   Instantaneous       Averaged
       Kinetic energy    (eV) =       0.432309          0.505947
       Potential energy  (eV) =    -390.696358       -358.021474
       Total energy      (eV) =    -390.264049       -357.515527
       Temperature       (K)  =      53.087166         62.129773
       Pressure         (GPa) =      44.542921         86.890651
       Cell parameter : a (A) =       7.257434          7.207051
       Cell parameter : b (A) =       7.236068          7.200193
       Cell parameter : c (A) =       7.245836          7.199083
       Cell angle : alpha (o) =      89.907762         89.937598
       Cell angle : beta  (o) =      90.209555         90.136006
       Cell angle : gamma (o) =      90.085590         90.074555
       Cell volume :   (A**3) =     380.513631        373.600560
  ** Time :            0.05500 ps :
     Properties:                   Instantaneous       Averaged
       Kinetic energy    (eV) =       0.428047          0.498865
       Potential energy  (eV) =    -393.338583       -361.232120
       Total energy      (eV) =    -392.910536       -360.733255
       Temperature       (K)  =      52.563716         61.260132
       Pressure         (GPa) =      43.265141         82.701124
       Cell parameter : a (A) =       7.265098          7.212328
       Cell parameter : b (A) =       7.241158          7.203917
       Cell parameter : c (A) =       7.253642          7.204043
       Cell angle : alpha (o) =      89.901255         89.934294
       Cell angle : beta  (o) =      90.222920         90.143907
       Cell angle : gamma (o) =      90.086098         90.075604
       Cell volume :   (A**3) =     381.593663        374.327206
  ** Time :            0.06000 ps :
     Properties:                   Instantaneous       Averaged
       Kinetic energy    (eV) =       0.425201          0.492726
       Potential energy  (eV) =    -395.602674       -364.096333
       Total energy      (eV) =    -395.177474       -363.603606
       Temperature       (K)  =      52.214248         60.506308
       Pressure         (GPa) =      42.213124         79.117230
       Cell parameter : a (A) =       7.272553          7.217346
       Cell parameter : b (A) =       7.246157          7.207437
       Cell parameter : c (A) =       7.261320          7.208816
       Cell angle : alpha (o) =      89.894106         89.930945
       Cell angle : beta  (o) =      90.236565         90.151629
       Cell angle : gamma (o) =      90.086100         90.076479
       Cell volume :   (A**3) =     382.653118        375.021032
  ** Time :            0.06500 ps :
     Properties:                   Instantaneous       Averaged
       Kinetic energy    (eV) =       0.423148          0.487374
       Potential energy  (eV) =    -397.608691       -366.674207
       Total energy      (eV) =    -397.185543       -366.186832
       Temperature       (K)  =      51.962179         59.849067
       Pressure         (GPa) =      41.619333         76.034118
       Cell parameter : a (A) =       7.279823          7.222152
       Cell parameter : b (A) =       7.251093          7.210796
       Cell parameter : c (A) =       7.268913          7.213439
       Cell angle : alpha (o) =      89.886530         89.927528
       Cell angle : beta  (o) =      90.250722         90.159251
       Cell angle : gamma (o) =      90.086015         90.077212
       Cell volume :   (A**3) =     383.696845        375.688402
  ** Time :            0.07000 ps :
     Properties:                   Instantaneous       Averaged
       Kinetic energy    (eV) =       0.421651          0.482680
       Potential energy  (eV) =    -399.428230       -369.013780
       Total energy      (eV) =    -399.006579       -368.531100
       Temperature       (K)  =      51.778303         59.272584
       Pressure         (GPa) =      40.962118         73.338972
       Cell parameter : a (A) =       7.286965          7.226782
       Cell parameter : b (A) =       7.255975          7.214023
       Cell parameter : c (A) =       7.276494          7.217943
       Cell angle : alpha (o) =      89.878673         89.924039
       Cell angle : beta  (o) =      90.264829         90.166793
       Cell angle : gamma (o) =      90.085927         90.077835
       Cell volume :   (A**3) =     384.732215        376.334388
  ** Time :            0.07500 ps :
     Properties:                   Instantaneous       Averaged
       Kinetic energy    (eV) =       0.420418          0.478529
       Potential energy  (eV) =    -401.100005       -371.152861
       Total energy      (eV) =    -400.679586       -370.674332
       Temperature       (K)  =      51.626939         58.762874
       Pressure         (GPa) =      40.201062         70.948323
       Cell parameter : a (A) =       7.293986          7.231262
       Cell parameter : b (A) =       7.260808          7.217142
       Cell parameter : c (A) =       7.283970          7.222344
       Cell angle : alpha (o) =      89.870723         89.920484
       Cell angle : beta  (o) =      90.278762         90.174257
       Cell angle : gamma (o) =      90.085839         90.078368
       Cell volume :   (A**3) =     385.754817        376.962417
  ** Time :            0.08000 ps :
     Properties:                   Instantaneous       Averaged
       Kinetic energy    (eV) =       0.419337          0.474829
       Potential energy  (eV) =    -402.644006       -373.121058
       Total energy      (eV) =    -402.224670       -372.646228
       Temperature       (K)  =      51.494119         58.308577
       Pressure         (GPa) =      39.442733         68.805747
       Cell parameter : a (A) =       7.300899          7.235614
       Cell parameter : b (A) =       7.265602          7.220170
       Cell parameter : c (A) =       7.291299          7.226654
       Cell angle : alpha (o) =      89.862851         89.916882
       Cell angle : beta  (o) =      90.292226         90.181630
       Cell angle : gamma (o) =      90.085732         90.078829
       Cell volume :   (A**3) =     386.763546        377.574988
  ** Time :            0.08500 ps :
     Properties:                   Instantaneous       Averaged
       Kinetic energy    (eV) =       0.418558          0.471519
       Potential energy  (eV) =    -404.076762       -374.941982
       Total energy      (eV) =    -403.658203       -374.470462
       Temperature       (K)  =      51.398518         57.902103
       Pressure         (GPa) =      38.367762         66.849657
       Cell parameter : a (A) =       7.307682          7.239854
       Cell parameter : b (A) =       7.270359          7.223123
       Cell parameter : c (A) =       7.298443          7.230877
       Cell angle : alpha (o) =      89.855187         89.913253
       Cell angle : beta  (o) =      90.305100         90.188893
       Cell angle : gamma (o) =      90.085849         90.079242
       Cell volume :   (A**3) =     387.755232        378.173825
  ** Time :            0.09000 ps :
     Properties:                   Instantaneous       Averaged
       Kinetic energy    (eV) =       0.419732          0.468642
       Potential energy  (eV) =    -405.466516       -376.637789
       Total energy      (eV) =    -405.046784       -376.169147
       Temperature       (K)  =      51.542653         57.548800
       Pressure         (GPa) =      36.271253         64.995128
       Cell parameter : a (A) =       7.314191          7.243984
       Cell parameter : b (A) =       7.275008          7.226005
       Cell parameter : c (A) =       7.305318          7.235013
       Cell angle : alpha (o) =      89.847917         89.909623
       Cell angle : beta  (o) =      90.317621         90.196045
       Cell angle : gamma (o) =      90.087007         90.079673
       Cell volume :   (A**3) =     388.714027        378.759392
  ** Time :            0.09500 ps :
     Properties:                   Instantaneous       Averaged
       Kinetic energy    (eV) =       0.423027          0.466241
       Potential energy  (eV) =    -406.949875       -378.233162
       Total energy      (eV) =    -406.526847       -377.766921
       Temperature       (K)  =      51.947350         57.253987
       Pressure         (GPa) =      34.977166         63.272666
       Cell parameter : a (A) =       7.320167          7.247993
       Cell parameter : b (A) =       7.279484          7.228820
       Cell parameter : c (A) =       7.311808          7.239054
       Cell angle : alpha (o) =      89.841149         89.906019
       Cell angle : beta  (o) =      90.330210         90.203106
       Cell angle : gamma (o) =      90.090078         90.080221
       Cell volume :   (A**3) =     389.616145        379.330800
  ** Time :            0.10000 ps :
     Properties:                   Instantaneous       Averaged
       Kinetic energy    (eV) =       0.418485          0.463854
       Potential energy  (eV) =    -408.528112       -379.747909
       Total energy      (eV) =    -408.109627       -379.284056
       Temperature       (K)  =      51.389487         56.960762
       Pressure         (GPa) =      35.422303         61.737658
       Cell parameter : a (A) =       7.326251          7.251906
       Cell parameter : b (A) =       7.284461          7.231602
       Cell parameter : c (A) =       7.318103          7.243007
       Cell angle : alpha (o) =      89.833956         89.902416
       Cell angle : beta  (o) =      90.341496         90.210026
       Cell angle : gamma (o) =      90.091257         90.080772
       Cell volume :   (A**3) =     390.541930        379.891357
  ** Time :            0.10500 ps :
     Properties:                   Instantaneous       Averaged
       Kinetic energy    (eV) =       0.416225          0.461586
       Potential energy  (eV) =    -409.646714       -381.171662
       Total energy      (eV) =    -409.230489       -380.710076
       Temperature       (K)  =      51.112024         56.682251
       Pressure         (GPa) =      34.554459         60.307730
       Cell parameter : a (A) =       7.332323          7.255735
       Cell parameter : b (A) =       7.289026          7.234336
       Cell parameter : c (A) =       7.324352          7.246880
       Cell angle : alpha (o) =      89.826841         89.898817
       Cell angle : beta  (o) =      90.351705         90.216772
       Cell angle : gamma (o) =      90.092590         90.081335
       Cell volume :   (A**3) =     391.443952        380.441480
  ** Time :            0.11000 ps :
     Properties:                   Instantaneous       Averaged
       Kinetic energy    (eV) =       0.414790          0.459458
       Potential energy  (eV) =    -410.661299       -382.512100
       Total energy      (eV) =    -410.246510       -382.052642
       Temperature       (K)  =      50.935741         56.421046
       Pressure         (GPa) =      34.765919         59.013876
       Cell parameter : a (A) =       7.338458          7.259496
       Cell parameter : b (A) =       7.293598          7.237030
       Cell parameter : c (A) =       7.330570          7.250685
       Cell angle : alpha (o) =      89.819975         89.895234
       Cell angle : beta  (o) =      90.361045         90.223330
       Cell angle : gamma (o) =      90.094046         90.081913
       Cell volume :   (A**3) =     392.349490        380.982754
  ** Time :            0.11500 ps :
     Properties:                   Instantaneous       Averaged
       Kinetic energy    (eV) =       0.413922          0.457479
       Potential energy  (eV) =    -411.579097       -383.775883
       Total energy      (eV) =    -411.165174       -383.318404
       Temperature       (K)  =      50.829256         56.177925
       Pressure         (GPa) =      34.216284         57.805781
       Cell parameter : a (A) =       7.344677          7.263199
       Cell parameter : b (A) =       7.298193          7.239689
       Cell parameter : c (A) =       7.336651          7.254422
       Cell angle : alpha (o) =      89.813440         89.891677
       Cell angle : beta  (o) =      90.369610         90.229690
       Cell angle : gamma (o) =      90.095361         90.082498
       Cell volume :   (A**3) =     393.254727        381.516318
  ** Time :            0.12000 ps :
     Properties:                   Instantaneous       Averaged
       Kinetic energy    (eV) =       0.413242          0.455635
       Potential energy  (eV) =    -412.413009       -384.969096
       Total energy      (eV) =    -411.999767       -384.513461
       Temperature       (K)  =      50.745691         55.951581
       Pressure         (GPa) =      33.706616         56.676222
       Cell parameter : a (A) =       7.350889          7.266853
       Cell parameter : b (A) =       7.302636          7.242312
       Cell parameter : c (A) =       7.342624          7.258097
       Cell angle : alpha (o) =      89.807496         89.888170
       Cell angle : beta  (o) =      90.377611         90.235853
       Cell angle : gamma (o) =      90.097112         90.083107
       Cell volume :   (A**3) =     394.147130        382.042601
  ** Time :            0.12500 ps :
     Properties:                   Instantaneous       Averaged
       Kinetic energy    (eV) =       0.412623          0.453915
       Potential energy  (eV) =    -413.175438       -386.097350
       Total energy      (eV) =    -412.762815       -385.643435
       Temperature       (K)  =      50.669653         55.740304
       Pressure         (GPa) =      33.204309         55.615243
       Cell parameter : a (A) =       7.357087          7.270462
       Cell parameter : b (A) =       7.307128          7.244905
       Cell parameter : c (A) =       7.348430          7.261711
       Cell angle : alpha (o) =      89.802072         89.884726
       Cell angle : beta  (o) =      90.385293         90.241831
       Cell angle : gamma (o) =      90.098902         90.083738
       Cell volume :   (A**3) =     395.033648        382.562243
  ** Time :            0.13000 ps :
     Properties:                   Instantaneous       Averaged
       Kinetic energy    (eV) =       0.411948          0.452301
       Potential energy  (eV) =    -413.865642       -387.165361
       Total energy      (eV) =    -413.453694       -386.713060
       Temperature       (K)  =      50.586824         55.542094
       Pressure         (GPa) =      32.427497         54.606149
       Cell parameter : a (A) =       7.363227          7.274030
       Cell parameter : b (A) =       7.311509          7.247467
       Cell parameter : c (A) =       7.354037          7.265262
       Cell angle : alpha (o) =      89.797331         89.881365
       Cell angle : beta  (o) =      90.392315         90.247619
       Cell angle : gamma (o) =      90.100740         90.084392
       Cell volume :   (A**3) =     395.901746        383.075301
  ** Time :            0.13500 ps :
     Properties:                   Instantaneous       Averaged
       Kinetic energy    (eV) =       0.411353          0.450784
       Potential energy  (eV) =    -414.486096       -388.177240
       Total energy      (eV) =    -414.074743       -387.726456
       Temperature       (K)  =      50.513789         55.355860
       Pressure         (GPa) =      31.989722         53.654342
       Cell parameter : a (A) =       7.369303          7.277559
       Cell parameter : b (A) =       7.315948          7.250003
       Cell parameter : c (A) =       7.359500          7.268752
       Cell angle : alpha (o) =      89.792907         89.878088
       Cell angle : beta  (o) =      90.399084         90.253229
       Cell angle : gamma (o) =      90.102584         90.085066
       Cell volume :   (A**3) =     396.763135        383.582258
  ** Time :            0.14000 ps :
     Properties:                   Instantaneous       Averaged
       Kinetic energy    (eV) =       0.410829          0.449357
       Potential energy  (eV) =    -415.041832       -389.136690
       Total energy      (eV) =    -414.631003       -388.687333
       Temperature       (K)  =      50.449377         55.180628
       Pressure         (GPa) =      30.957975         52.734182
       Cell parameter : a (A) =       7.375270          7.281048
       Cell parameter : b (A) =       7.320270          7.252512
       Cell parameter : c (A) =       7.364810          7.272183
       Cell angle : alpha (o) =      89.789212         89.874914
       Cell angle : beta  (o) =      90.405361         90.258662
       Cell angle : gamma (o) =      90.104456         90.085759
       Cell volume :   (A**3) =     397.605217        384.083078
  ** Time :            0.14500 ps :
     Properties:                   Instantaneous       Averaged
       Kinetic energy    (eV) =       0.410298          0.448010
       Potential energy  (eV) =    -415.539565       -390.047134
       Total energy      (eV) =    -415.129267       -389.599123
       Temperature       (K)  =      50.384155         55.015233
       Pressure         (GPa) =      30.539930         51.863208
       Cell parameter : a (A) =       7.381131          7.284499
       Cell parameter : b (A) =       7.324519          7.254995
       Cell parameter : c (A) =       7.369994          7.275555
       Cell angle : alpha (o) =      89.786002         89.871848
       Cell angle : beta  (o) =      90.410933         90.263913
       Cell angle : gamma (o) =      90.106074         90.086459
       Cell volume :   (A**3) =     398.432003        384.577868
  ** Time :            0.15000 ps :
     Properties:                   Instantaneous       Averaged
       Kinetic energy    (eV) =       0.409878          0.446739
       Potential energy  (eV) =    -415.985071       -390.911732
       Total energy      (eV) =    -415.575194       -390.464992
       Temperature       (K)  =      50.332583         54.859145
       Pressure         (GPa) =      29.701750         51.022279
       Cell parameter : a (A) =       7.386904          7.287913
       Cell parameter : b (A) =       7.328696          7.257452
       Cell parameter : c (A) =       7.375079          7.278873
       Cell angle : alpha (o) =      89.783274         89.868896
       Cell angle : beta  (o) =      90.415947         90.268980
       Cell angle : gamma (o) =      90.107410         90.087157
       Cell volume :   (A**3) =     399.245983        385.066806
  ** Time :            0.15500 ps :
     Properties:                   Instantaneous       Averaged
       Kinetic energy    (eV) =       0.409497          0.445538
       Potential energy  (eV) =    -416.382988       -391.733385
       Total energy      (eV) =    -415.973491       -391.287847
       Temperature       (K)  =      50.285768         54.711616
       Pressure         (GPa) =      29.082647         50.216261
       Cell parameter : a (A) =       7.392555          7.291289
       Cell parameter : b (A) =       7.332745          7.259881
       Cell parameter : c (A) =       7.380068          7.282137
       Cell angle : alpha (o) =      89.781199         89.866067
       Cell angle : beta  (o) =      90.420164         90.273857
       Cell angle : gamma (o) =      90.108379         90.087842
       Cell volume :   (A**3) =     400.042298        385.549886
  ** Time :            0.16000 ps :
     Properties:                   Instantaneous       Averaged
       Kinetic energy    (eV) =       0.408993          0.444396
       Potential energy  (eV) =    -416.735674       -392.514707
       Total energy      (eV) =    -416.326681       -392.070311
       Temperature       (K)  =      50.223930         54.571376
       Pressure         (GPa) =      28.681027         49.448010
       Cell parameter : a (A) =       7.398111          7.294627
       Cell parameter : b (A) =       7.336736          7.262283
       Cell parameter : c (A) =       7.384981          7.285351
       Cell angle : alpha (o) =      89.779471         89.863361
       Cell angle : beta  (o) =      90.423768         90.278542
       Cell angle : gamma (o) =      90.108903         90.088500
       Cell volume :   (A**3) =     400.827317        386.027306
  ** Time :            0.16500 ps :
     Properties:                   Instantaneous       Averaged
       Kinetic energy    (eV) =       0.408727          0.443315
       Potential energy  (eV) =    -417.044561       -393.258036
       Total energy      (eV) =    -416.635834       -392.814721
       Temperature       (K)  =      50.191249         54.438645
       Pressure         (GPa) =      28.060703         48.706929
       Cell parameter : a (A) =       7.403658          7.297931
       Cell parameter : b (A) =       7.340615          7.264656
       Cell parameter : c (A) =       7.389883          7.288519
       Cell angle : alpha (o) =      89.777895         89.860771
       Cell angle : beta  (o) =      90.426402         90.283023
       Cell angle : gamma (o) =      90.108985         90.089121
       Cell volume :   (A**3) =     401.606086        386.499390
  ** Time :            0.17000 ps :
     Properties:                   Instantaneous       Averaged
       Kinetic energy    (eV) =       0.408359          0.442287
       Potential energy  (eV) =    -417.306178       -393.965334
       Total energy      (eV) =    -416.897820       -393.523047
       Temperature       (K)  =      50.146021         54.312391
       Pressure         (GPa) =      27.278436         47.987730
       Cell parameter : a (A) =       7.409088          7.301200
       Cell parameter : b (A) =       7.344371          7.267001
       Cell parameter : c (A) =       7.394607          7.291639
       Cell angle : alpha (o) =      89.776468         89.858291
       Cell angle : beta  (o) =      90.428967         90.287315
       Cell angle : gamma (o) =      90.108646         90.089695
       Cell volume :   (A**3) =     402.363157        386.965971
  ** Time :            0.17500 ps :
     Properties:                   Instantaneous       Averaged
       Kinetic energy    (eV) =       0.407847          0.441303
       Potential energy  (eV) =    -417.540402       -394.638907
       Total energy      (eV) =    -417.132554       -394.197604
       Temperature       (K)  =      50.083233         54.191558
       Pressure         (GPa) =      27.279049         47.309686
       Cell parameter : a (A) =       7.414510          7.304437
       Cell parameter : b (A) =       7.348032          7.269316
       Cell parameter : c (A) =       7.399228          7.294713
       Cell angle : alpha (o) =      89.774780         89.855905
       Cell angle : beta  (o) =      90.431084         90.291423
       Cell angle : gamma (o) =      90.107942         90.090217
       Cell volume :   (A**3) =     403.109999        387.427229
  ** Time :            0.18000 ps :
     Properties:                   Instantaneous       Averaged
       Kinetic energy    (eV) =       0.407977          0.440377
       Potential energy  (eV) =    -417.757811       -395.281099
       Total energy      (eV) =    -417.349835       -394.840722
       Temperature       (K)  =      50.099114         54.077879
       Pressure         (GPa) =      26.472699         46.645233
       Cell parameter : a (A) =       7.419986          7.307647
       Cell parameter : b (A) =       7.351732          7.271605
       Cell parameter : c (A) =       7.403836          7.297744
       Cell angle : alpha (o) =      89.772961         89.853601
       Cell angle : beta  (o) =      90.432290         90.295336
       Cell angle : gamma (o) =      90.107096         90.090685
       Cell volume :   (A**3) =     403.862034        387.883752
  ** Time :            0.18500 ps :
     Properties:                   Instantaneous       Averaged
       Kinetic energy    (eV) =       0.408145          0.439506
       Potential energy  (eV) =    -417.960148       -395.894046
       Total energy      (eV) =    -417.552003       -395.454540
       Temperature       (K)  =      50.119835         53.970905
       Pressure         (GPa) =      25.882652         46.002889
       Cell parameter : a (A) =       7.425372          7.310829
       Cell parameter : b (A) =       7.355235          7.273866
       Cell parameter : c (A) =       7.408197          7.300729
       Cell angle : alpha (o) =      89.770960         89.851368
       Cell angle : beta  (o) =      90.433499         90.299070
       Cell angle : gamma (o) =      90.106040         90.091100
       Cell volume :   (A**3) =     404.585832        388.335159
  ** Time :            0.19000 ps :
     Properties:                   Instantaneous       Averaged
       Kinetic energy    (eV) =       0.407684          0.438669
       Potential energy  (eV) =    -418.169214       -396.480235
       Total energy      (eV) =    -417.761530       -396.041566
       Temperature       (K)  =      50.063237         53.868072
       Pressure         (GPa) =      26.264476         45.403632
       Cell parameter : a (A) =       7.430797          7.313986
       Cell parameter : b (A) =       7.358682          7.276098
       Cell parameter : c (A) =       7.412532          7.303672
       Cell angle : alpha (o) =      89.768476         89.849186
       Cell angle : beta  (o) =      90.434093         90.302623
       Cell angle : gamma (o) =      90.104756         90.091460
       Cell volume :   (A**3) =     405.308141        388.781817
  ** Time :            0.19500 ps :
     Properties:                   Instantaneous       Averaged
       Kinetic energy    (eV) =       0.407520          0.437870
       Potential energy  (eV) =    -418.335184       -397.040618
       Total energy      (eV) =    -417.927664       -396.602748
       Temperature       (K)  =      50.043002         53.769993
       Pressure         (GPa) =      25.401526         44.811354
       Cell parameter : a (A) =       7.436191          7.317119
       Cell parameter : b (A) =       7.362374          7.278310
       Cell parameter : c (A) =       7.416756          7.306571
       Cell angle : alpha (o) =      89.765106         89.847030
       Cell angle : beta  (o) =      90.434873         90.306014
       Cell angle : gamma (o) =      90.103798         90.091776
       Cell volume :   (A**3) =     406.036925        389.224255
  ** Time :            0.20000 ps :
     Properties:                   Instantaneous       Averaged
       Kinetic energy    (eV) =       0.407451          0.437109
       Potential energy  (eV) =    -418.474832       -397.576474
       Total energy      (eV) =    -418.067380       -397.139364
       Temperature       (K)  =      50.034599         53.676608
       Pressure         (GPa) =      24.571329         44.230221
       Cell parameter : a (A) =       7.441532          7.320230
       Cell parameter : b (A) =       7.365753          7.280496
       Cell parameter : c (A) =       7.420795          7.309427
       Cell angle : alpha (o) =      89.761636         89.844896
       Cell angle : beta  (o) =      90.435585         90.309253
       Cell angle : gamma (o) =      90.104043         90.092083
       Cell volume :   (A**3) =     406.736356        389.662058
  ** Time :            0.20500 ps :
     Properties:                   Instantaneous       Averaged
       Kinetic energy    (eV) =       0.407162          0.436379
       Potential energy  (eV) =    -418.593996       -398.089096
       Total energy      (eV) =    -418.186834       -397.652717
       Temperature       (K)  =      49.999075         53.586912
       Pressure         (GPa) =      24.705145         43.680761
       Cell parameter : a (A) =       7.446863          7.323318
       Cell parameter : b (A) =       7.369057          7.282656
       Cell parameter : c (A) =       7.424762          7.312240
       Cell angle : alpha (o) =      89.757424         89.842762
       Cell angle : beta  (o) =      90.435532         90.312333
       Cell angle : gamma (o) =      90.104225         90.092379
       Cell volume :   (A**3) =     407.427857        390.095370
  ** Time :            0.21000 ps :
     Properties:                   Instantaneous       Averaged
       Kinetic energy    (eV) =       0.406773          0.435674
       Potential energy  (eV) =    -418.696245       -398.579742
       Total energy      (eV) =    -418.289471       -398.144068
       Temperature       (K)  =      49.951356         53.500351
       Pressure         (GPa) =      23.454651         43.127966
       Cell parameter : a (A) =       7.452116          7.326385
       Cell parameter : b (A) =       7.372372          7.284792
       Cell parameter : c (A) =       7.428603          7.315010
       Cell angle : alpha (o) =      89.753535         89.840638
       Cell angle : beta  (o) =      90.435366         90.315263
       Cell angle : gamma (o) =      90.105543         90.092692
       Cell volume :   (A**3) =     408.109506        390.524278
  ** Time :            0.21500 ps :
     Properties:                   Instantaneous       Averaged
       Kinetic energy    (eV) =       0.407287          0.435014
       Potential energy  (eV) =    -418.780293       -399.049523
       Total energy      (eV) =    -418.373006       -398.614509
       Temperature       (K)  =      50.014485         53.419285
       Pressure         (GPa) =      22.288981         42.576788
       Cell parameter : a (A) =       7.457350          7.329431
       Cell parameter : b (A) =       7.375237          7.286895
       Cell parameter : c (A) =       7.432249          7.317737
       Cell angle : alpha (o) =      89.749217         89.838512
       Cell angle : beta  (o) =      90.434636         90.318039
       Cell angle : gamma (o) =      90.108263         90.093055
       Cell volume :   (A**3) =     408.755269        390.948254
  ** Time :            0.22000 ps :
     Properties:                   Instantaneous       Averaged
       Kinetic energy    (eV) =       0.407241          0.434383
       Potential energy  (eV) =    -418.853156       -399.499605
       Total energy      (eV) =    -418.445916       -399.065223
       Temperature       (K)  =      50.008735         53.341772
       Pressure         (GPa) =      22.385661         42.052898
       Cell parameter : a (A) =       7.462466          7.332454
       Cell parameter : b (A) =       7.378193          7.288970
       Cell parameter : c (A) =       7.435795          7.320420
       Cell angle : alpha (o) =      89.745101         89.836389
       Cell angle : beta  (o) =      90.433245         90.320657
       Cell angle : gamma (o) =      90.111234         90.093468
       Cell volume :   (A**3) =     409.394818        391.367495
  ** Time :            0.22500 ps :
     Properties:                   Instantaneous       Averaged
       Kinetic energy    (eV) =       0.406976          0.433774
       Potential energy  (eV) =    -418.943350       -399.931689
       Total energy      (eV) =    -418.536374       -399.497915
       Temperature       (K)  =      49.976263         53.266983
       Pressure         (GPa) =      21.054587         41.524501
       Cell parameter : a (A) =       7.467435          7.335454
       Cell parameter : b (A) =       7.380884          7.291013
       Cell parameter : c (A) =       7.439316          7.323062
       Cell angle : alpha (o) =      89.741514         89.834280
       Cell angle : beta  (o) =      90.431890         90.323129
       Cell angle : gamma (o) =      90.114956         90.093945
       Cell volume :   (A**3) =     410.010736        391.781789
  ** Time :            0.23000 ps :
     Properties:                   Instantaneous       Averaged
       Kinetic energy    (eV) =       0.407154          0.433195
       Potential energy  (eV) =    -419.031269       -400.346897
       Total energy      (eV) =    -418.624115       -399.913702
       Temperature       (K)  =      49.998140         53.195921
       Pressure         (GPa) =      21.021431         41.019544
       Cell parameter : a (A) =       7.472268          7.338428
       Cell parameter : b (A) =       7.383490          7.293023
       Cell parameter : c (A) =       7.442735          7.325664
       Cell angle : alpha (o) =      89.738067         89.832189
       Cell angle : beta  (o) =      90.430671         90.325467
       Cell angle : gamma (o) =      90.119037         90.094491
       Cell volume :   (A**3) =     410.609526        392.191087
  ** Time :            0.23500 ps :
     Properties:                   Instantaneous       Averaged
       Kinetic energy    (eV) =       0.407025          0.432638
       Potential energy  (eV) =    -419.112652       -400.746168
       Total energy      (eV) =    -418.705626       -400.313530
       Temperature       (K)  =      49.982326         53.127547
       Pressure         (GPa) =      20.177186         40.518068
       Cell parameter : a (A) =       7.476938          7.341375
       Cell parameter : b (A) =       7.386142          7.295005
       Cell parameter : c (A) =       7.446179          7.328228
       Cell angle : alpha (o) =      89.734922         89.830119
       Cell angle : beta  (o) =      90.428675         90.327663
       Cell angle : gamma (o) =      90.122701         90.095091
       Cell volume :   (A**3) =     411.203810        392.595613
  ** Time :            0.24000 ps :
     Properties:                   Instantaneous       Averaged
       Kinetic energy    (eV) =       0.406961          0.432103
       Potential energy  (eV) =    -419.160391       -401.129798
       Total energy      (eV) =    -418.753431       -400.697695
       Temperature       (K)  =      49.974358         53.061855
       Pressure         (GPa) =      19.631103         40.028248
       Cell parameter : a (A) =       7.481444          7.344293
       Cell parameter : b (A) =       7.388530          7.296953
       Cell parameter : c (A) =       7.449556          7.330756
       Cell angle : alpha (o) =      89.731471         89.828064
       Cell angle : beta  (o) =      90.426552         90.329723
       Cell angle : gamma (o) =      90.125828         90.095731
       Cell volume :   (A**3) =     411.771268        392.995106
  ** Time :            0.24500 ps :
     Properties:                   Instantaneous       Averaged
       Kinetic energy    (eV) =       0.406696          0.431585
       Potential energy  (eV) =    -419.195466       -401.498485
       Total energy      (eV) =    -418.788770       -401.066900
       Temperature       (K)  =      49.941865         52.998182
       Pressure         (GPa) =      19.872084         39.562461
       Cell parameter : a (A) =       7.485815          7.347181
       Cell parameter : b (A) =       7.390963          7.298872
       Cell parameter : c (A) =       7.453105          7.333252
       Cell angle : alpha (o) =      89.727938         89.826021
       Cell angle : beta  (o) =      90.425159         90.331671
       Cell angle : gamma (o) =      90.128555         90.096401
       Cell volume :   (A**3) =     412.343721        393.389976
  ** Time :            0.25000 ps :
     Properties:                   Instantaneous       Averaged
       Kinetic energy    (eV) =       0.406785          0.431089
       Potential energy  (eV) =    -419.239140       -401.853298
       Total energy      (eV) =    -418.832355       -401.422209
       Temperature       (K)  =      49.952772         52.937274
       Pressure         (GPa) =      18.872535         39.095992
       Cell parameter : a (A) =       7.490002          7.350038
       Cell parameter : b (A) =       7.393536          7.300765
       Cell parameter : c (A) =       7.456475          7.335717
       Cell angle : alpha (o) =      89.724674         89.823994
       Cell angle : beta  (o) =      90.423091         90.333499
       Cell angle : gamma (o) =      90.130409         90.097081
       Cell volume :   (A**3) =     412.904655        393.780270
  ** Time :            0.25500 ps :
     Properties:                   Instantaneous       Averaged
       Kinetic energy    (eV) =       0.407332          0.430623
       Potential energy  (eV) =    -419.284971       -402.195096
       Total energy      (eV) =    -418.877639       -401.764473
       Temperature       (K)  =      50.019989         52.880072
       Pressure         (GPa) =      18.982417         38.650278
       Cell parameter : a (A) =       7.494221          7.352865
       Cell parameter : b (A) =       7.396023          7.302633
       Cell parameter : c (A) =       7.459764          7.338149
       Cell angle : alpha (o) =      89.720572         89.821966
       Cell angle : beta  (o) =      90.421169         90.335218
       Cell angle : gamma (o) =      90.132254         90.097771
       Cell volume :   (A**3) =     413.458353        394.166114
  ** Time :            0.26000 ps :
     Properties:                   Instantaneous       Averaged
       Kinetic energy    (eV) =       0.407442          0.430177
       Potential energy  (eV) =    -419.370224       -402.525386
       Total energy      (eV) =    -418.962782       -402.095209
       Temperature       (K)  =      50.033513         52.825331
       Pressure         (GPa) =      18.469745         38.212717
       Cell parameter : a (A) =       7.498296          7.355662
       Cell parameter : b (A) =       7.398412          7.304475
       Cell parameter : c (A) =       7.463043          7.340551
       Cell angle : alpha (o) =      89.715598         89.819920
       Cell angle : beta  (o) =      90.419322         90.336836
       Cell angle : gamma (o) =      90.133942         90.098467
       Cell volume :   (A**3) =     413.998671        394.547510
  ** Time :            0.26500 ps :
     Properties:                   Instantaneous       Averaged
       Kinetic energy    (eV) =       0.407804          0.429755
       Potential energy  (eV) =    -419.488880       -402.845452
       Total energy      (eV) =    -419.081076       -402.415697
       Temperature       (K)  =      50.077867         52.773492
       Pressure         (GPa) =      18.476857         37.791991
       Cell parameter : a (A) =       7.502278          7.358428
       Cell parameter : b (A) =       7.400850          7.306293
       Cell parameter : c (A) =       7.466257          7.342923
       Cell angle : alpha (o) =      89.710640         89.817858
       Cell angle : beta  (o) =      90.418286         90.338372
       Cell angle : gamma (o) =      90.135801         90.099171
       Cell volume :   (A**3) =     414.533278        394.924600
  ** Time :            0.27000 ps :
     Properties:                   Instantaneous       Averaged
       Kinetic energy    (eV) =       0.407697          0.429347
       Potential energy  (eV) =    -419.616508       -403.156027
       Total energy      (eV) =    -419.208811       -402.726681
       Temperature       (K)  =      50.064781         52.723331
       Pressure         (GPa) =      18.327970         37.383129
       Cell parameter : a (A) =       7.506290          7.361166
       Cell parameter : b (A) =       7.403269          7.308089
       Cell parameter : c (A) =       7.469582          7.345268
       Cell angle : alpha (o) =      89.705783         89.815783
       Cell angle : beta  (o) =      90.417442         90.339837
       Cell angle : gamma (o) =      90.137681         90.099884
       Cell volume :   (A**3) =     415.075085        395.297757
  ** Time :            0.27500 ps :
     Properties:                   Instantaneous       Averaged
       Kinetic energy    (eV) =       0.407776          0.428954
       Potential energy  (eV) =    -419.742426       -403.457598
       Total energy      (eV) =    -419.334650       -403.028644
       Temperature       (K)  =      50.074455         52.675169
       Pressure         (GPa) =      17.543256         36.975971
       Cell parameter : a (A) =       7.510167          7.363875
       Cell parameter : b (A) =       7.405698          7.309864
       Cell parameter : c (A) =       7.472733          7.347586
       Cell angle : alpha (o) =      89.700808         89.813692
       Cell angle : beta  (o) =      90.416920         90.341238
       Cell angle : gamma (o) =      90.139134         90.100598
       Cell volume :   (A**3) =     415.600857        395.666904
  ** Time :            0.28000 ps :
     Properties:                   Instantaneous       Averaged
       Kinetic energy    (eV) =       0.407261          0.428567
       Potential energy  (eV) =    -419.826130       -403.749894
       Total energy      (eV) =    -419.418869       -403.321327
       Temperature       (K)  =      50.011284         52.627600
       Pressure         (GPa) =      17.852782         36.589026
       Cell parameter : a (A) =       7.514094          7.366558
       Cell parameter : b (A) =       7.408113          7.311618
       Cell parameter : c (A) =       7.475755          7.349875
       Cell angle : alpha (o) =      89.696043         89.811592
       Cell angle : beta  (o) =      90.416914         90.342589
       Cell angle : gamma (o) =      90.140991         90.101319
       Cell volume :   (A**3) =     416.121748        396.032169
  ** Time :            0.28500 ps :
     Properties:                   Instantaneous       Averaged
       Kinetic energy    (eV) =       0.406959          0.428188
       Potential energy  (eV) =    -419.883342       -404.032937
       Total energy      (eV) =    -419.476383       -403.604749
       Temperature       (K)  =      49.974173         52.581048
       Pressure         (GPa) =      17.228468         36.205178
       Cell parameter : a (A) =       7.517992          7.369214
       Cell parameter : b (A) =       7.410511          7.313353
       Cell parameter : c (A) =       7.478658          7.352134
       Cell angle : alpha (o) =      89.691290         89.809481
       Cell angle : beta  (o) =      90.416853         90.343892
       Cell angle : gamma (o) =      90.141944         90.102032
       Cell volume :   (A**3) =     416.633908        396.393603
  ** Time :            0.29000 ps :
     Properties:                   Instantaneous       Averaged
       Kinetic energy    (eV) =       0.406637          0.427816
       Potential energy  (eV) =    -419.910667       -404.306691
       Total energy      (eV) =    -419.504030       -403.878874
       Temperature       (K)  =      49.934668         52.535421
       Pressure         (GPa) =      16.768414         35.827286
       Cell parameter : a (A) =       7.521753          7.371844
       Cell parameter : b (A) =       7.412974          7.315071
       Cell parameter : c (A) =       7.481433          7.354363
       Cell angle : alpha (o) =      89.686677         89.807364
       Cell angle : beta  (o) =      90.416826         90.345150
       Cell angle : gamma (o) =      90.142017         90.102721
       Cell volume :   (A**3) =     417.135398        396.751220
  ** Time :            0.29500 ps :
     Properties:                   Instantaneous       Averaged
       Kinetic energy    (eV) =       0.406828          0.427461
       Potential energy  (eV) =    -419.917159       -404.571275
       Total energy      (eV) =    -419.510331       -404.143814
       Temperature       (K)  =      49.958064         52.491737
       Pressure         (GPa) =      16.193551         35.453316
       Cell parameter : a (A) =       7.525479          7.374448
       Cell parameter : b (A) =       7.415299          7.316769
       Cell parameter : c (A) =       7.484140          7.356563
       Cell angle : alpha (o) =      89.682367         89.805245
       Cell angle : beta  (o) =      90.417099         90.346369
       Cell angle : gamma (o) =      90.142269         90.103391
       Cell volume :   (A**3) =     417.623860        397.104994
  ** Time :            0.30000 ps :
     Properties:                   Instantaneous       Averaged
       Kinetic energy    (eV) =       0.406334          0.427108
       Potential energy  (eV) =    -419.896190       -404.826690
       Total energy      (eV) =    -419.489856       -404.399581
       Temperature       (K)  =      49.897384         52.448498
       Pressure         (GPa) =      16.189895         35.092229
       Cell parameter : a (A) =       7.529064          7.377025
       Cell parameter : b (A) =       7.417588          7.318450
       Cell parameter : c (A) =       7.486871          7.358735
       Cell angle : alpha (o) =      89.677454         89.803115
       Cell angle : beta  (o) =      90.417861         90.347561
       Cell angle : gamma (o) =      90.141872         90.104033
       Cell volume :   (A**3) =     418.103944        397.454976
  ** Time :            0.30500 ps :
     Properties:                   Instantaneous       Averaged
       Kinetic energy    (eV) =       0.406399          0.426769
       Potential energy  (eV) =    -419.877555       -405.073425
       Total energy      (eV) =    -419.471155       -404.646656
       Temperature       (K)  =      49.905434         52.406808
       Pressure         (GPa) =      15.504651         34.732252
       Cell parameter : a (A) =       7.532645          7.379576
       Cell parameter : b (A) =       7.419760          7.320110
       Cell parameter : c (A) =       7.489559          7.360879
       Cell angle : alpha (o) =      89.672192         89.800969
       Cell angle : beta  (o) =      90.418593         90.348725
       Cell angle : gamma (o) =      90.141323         90.104644
       Cell volume :   (A**3) =     418.575300        397.801211
  ** Time :            0.31000 ps :
     Properties:                   Instantaneous       Averaged
       Kinetic energy    (eV) =       0.406516          0.426442
       Potential energy  (eV) =    -419.844726       -405.311672
       Total energy      (eV) =    -419.438210       -404.885230
       Temperature       (K)  =      49.919772         52.366695
       Pressure         (GPa) =      15.195123         34.379753
       Cell parameter : a (A) =       7.536190          7.382103
       Cell parameter : b (A) =       7.421861          7.321752
       Cell parameter : c (A) =       7.492116          7.362996
       Cell angle : alpha (o) =      89.667033         89.798809
       Cell angle : beta  (o) =      90.419447         90.349866
       Cell angle : gamma (o) =      90.140888         90.105229
       Cell volume :   (A**3) =     419.033713        398.143671
  ** Time :            0.31500 ps :
     Properties:                   Instantaneous       Averaged
       Kinetic energy    (eV) =       0.406947          0.426133
       Potential energy  (eV) =    -419.838355       -405.542255
       Total energy      (eV) =    -419.431408       -405.116122
       Temperature       (K)  =      49.972699         52.328695
       Pressure         (GPa) =      14.812657         34.032987
       Cell parameter : a (A) =       7.539643          7.384603
       Cell parameter : b (A) =       7.423946          7.323374
       Cell parameter : c (A) =       7.494602          7.365085
       Cell angle : alpha (o) =      89.661039         89.796622
       Cell angle : beta  (o) =      90.420513         90.350987
       Cell angle : gamma (o) =      90.139609         90.105774
       Cell volume :   (A**3) =     419.482242        398.482378
  ** Time :            0.32000 ps :
     Properties:                   Instantaneous       Averaged
       Kinetic energy    (eV) =       0.406980          0.425834
       Potential energy  (eV) =    -419.866453       -405.766070
       Total energy      (eV) =    -419.459473       -405.340236
       Temperature       (K)  =      49.976733         52.291946
       Pressure         (GPa) =      14.378442         33.691332
       Cell parameter : a (A) =       7.543039          7.387079
       Cell parameter : b (A) =       7.425823          7.324975
       Cell parameter : c (A) =       7.497072          7.367147
       Cell angle : alpha (o) =      89.655052         89.794410
       Cell angle : beta  (o) =      90.421728         90.352093
       Cell angle : gamma (o) =      90.137793         90.106275
       Cell volume :   (A**3) =     419.915346        398.817268
  ** Time :            0.32500 ps :
     Properties:                   Instantaneous       Averaged
       Kinetic energy    (eV) =       0.407444          0.425551
       Potential energy  (eV) =    -419.914674       -405.983741
       Total energy      (eV) =    -419.507231       -405.558190
       Temperature       (K)  =      50.033670         52.257203
       Pressure         (GPa) =      13.487868         33.347442
       Cell parameter : a (A) =       7.546284          7.389528
       Cell parameter : b (A) =       7.427659          7.326554
       Cell parameter : c (A) =       7.499476          7.369183
       Cell angle : alpha (o) =      89.650352         89.792194
       Cell angle : beta  (o) =      90.422756         90.353180
       Cell angle : gamma (o) =      90.135604         90.106726
       Cell volume :   (A**3) =     420.334342        399.148300
  ** Time :            0.33000 ps :
     Properties:                   Instantaneous       Averaged
       Kinetic energy    (eV) =       0.409058          0.425301
       Potential energy  (eV) =    -420.029543       -406.196556
       Total energy      (eV) =    -419.620485       -405.771255
       Temperature       (K)  =      50.231910         52.226517
       Pressure         (GPa) =      13.336853         33.013174
       Cell parameter : a (A) =       7.549416          7.391951
       Cell parameter : b (A) =       7.429371          7.328112
       Cell parameter : c (A) =       7.501737          7.371192
       Cell angle : alpha (o) =      89.646233         89.789982
       Cell angle : beta  (o) =      90.423855         90.354251
       Cell angle : gamma (o) =      90.132403         90.107115
       Cell volume :   (A**3) =     420.732464        399.475333
  ** Time :            0.33500 ps :
     Properties:                   Instantaneous       Averaged
       Kinetic energy    (eV) =       0.412937          0.425116
       Potential energy  (eV) =    -420.381574       -406.408273
       Total energy      (eV) =    -419.968638       -405.983157
       Temperature       (K)  =      50.708222         52.203855
       Pressure         (GPa) =      13.766282         32.693957
       Cell parameter : a (A) =       7.552627          7.394349
       Cell parameter : b (A) =       7.431002          7.329648
       Cell parameter : c (A) =       7.504277          7.373178
       Cell angle : alpha (o) =      89.643245         89.787792
       Cell angle : beta  (o) =      90.424341         90.355297
       Cell angle : gamma (o) =      90.128652         90.107436
       Cell volume :   (A**3) =     421.146216        399.798779
  ** Time :            0.34000 ps :
     Properties:                   Instantaneous       Averaged
       Kinetic energy    (eV) =       0.409466          0.424886
       Potential energy  (eV) =    -420.821858       -406.620237
       Total energy      (eV) =    -420.412392       -406.195351
       Temperature       (K)  =      50.282001         52.175593
       Pressure         (GPa) =      13.250924         32.377223
       Cell parameter : a (A) =       7.555787          7.396723
       Cell parameter : b (A) =       7.432601          7.331162
       Cell parameter : c (A) =       7.506704          7.375142
       Cell angle : alpha (o) =      89.640875         89.785631
       Cell angle : beta  (o) =      90.423288         90.356297
       Cell angle : gamma (o) =      90.124571         90.107688
       Cell volume :   (A**3) =     421.549369        400.118641
  ** Time :            0.34500 ps :
     Properties:                   Instantaneous       Averaged
       Kinetic energy    (eV) =       0.407335          0.424632
       Potential energy  (eV) =    -420.972235       -406.828237
       Total energy      (eV) =    -420.564900       -406.403606
       Temperature       (K)  =      50.020364         52.144358
       Pressure         (GPa) =      13.868341         32.078102
       Cell parameter : a (A) =       7.558885          7.399073
       Cell parameter : b (A) =       7.434311          7.332657
       Cell parameter : c (A) =       7.509166          7.377084
       Cell angle : alpha (o) =      89.638185         89.783495
       Cell angle : beta  (o) =      90.420711         90.357230
       Cell angle : gamma (o) =      90.121135         90.107883
       Cell volume :   (A**3) =     421.957690        400.435149
  ** Time :            0.35000 ps :
     Properties:                   Instantaneous       Averaged
       Kinetic energy    (eV) =       0.408247          0.424398
       Potential energy  (eV) =    -421.053402       -407.031454
       Total energy      (eV) =    -420.645155       -406.607056
       Temperature       (K)  =      50.132269         52.115614
       Pressure         (GPa) =      12.938933         31.774118
       Cell parameter : a (A) =       7.561839          7.401398
       Cell parameter : b (A) =       7.436087          7.334134
       Cell parameter : c (A) =       7.511702          7.379007
       Cell angle : alpha (o) =      89.635155         89.781375
       Cell angle : beta  (o) =      90.418842         90.358110
       Cell angle : gamma (o) =      90.118559         90.108036
       Cell volume :   (A**3) =     422.365994        400.748447
  ** Time :            0.35500 ps :
     Properties:                   Instantaneous       Averaged
       Kinetic energy    (eV) =       0.406882          0.424151
       Potential energy  (eV) =    -421.169932       -407.230587
       Total energy      (eV) =    -420.763050       -406.806436
       Temperature       (K)  =      49.964702         52.085319
       Pressure         (GPa) =      13.518124         31.487698
       Cell parameter : a (A) =       7.564794          7.403700
       Cell parameter : b (A) =       7.437757          7.335594
       Cell parameter : c (A) =       7.514110          7.380910
       Cell angle : alpha (o) =      89.631069         89.779258
       Cell angle : beta  (o) =      90.417283         90.358944
       Cell angle : gamma (o) =      90.116438         90.108154
       Cell volume :   (A**3) =     422.761311        401.058487
  ** Time :            0.36000 ps :
     Properties:                   Instantaneous       Averaged
       Kinetic energy    (eV) =       0.406698          0.423909
       Potential energy  (eV) =    -421.210903       -407.424758
       Total energy      (eV) =    -420.804205       -407.000850
       Temperature       (K)  =      49.942128         52.055552
       Pressure         (GPa) =      12.562154         31.194666
       Cell parameter : a (A) =       7.567816          7.405979
       Cell parameter : b (A) =       7.439516          7.337037
       Cell parameter : c (A) =       7.516642          7.382795
       Cell angle : alpha (o) =      89.624615         89.777111
       Cell angle : beta  (o) =      90.416567         90.359744
       Cell angle : gamma (o) =      90.114803         90.108246
       Cell volume :   (A**3) =     423.172579        401.365627
  ** Time :            0.36500 ps :
     Properties:                   Instantaneous       Averaged
       Kinetic energy    (eV) =       0.407095          0.423678
       Potential energy  (eV) =    -421.163355       -407.612958
       Total energy      (eV) =    -420.756260       -407.189280
       Temperature       (K)  =      49.990916         52.027270
       Pressure         (GPa) =      12.093360         30.906207
       Cell parameter : a (A) =       7.570673          7.408235
       Cell parameter : b (A) =       7.440936          7.338460
       Cell parameter : c (A) =       7.518924          7.384660
       Cell angle : alpha (o) =      89.619080         89.774946
       Cell angle : beta  (o) =      90.415798         90.360512
       Cell angle : gamma (o) =      90.112930         90.108311
       Cell volume :   (A**3) =     423.541472        401.669406
  ** Time :            0.37000 ps :
     Properties:                   Instantaneous       Averaged
       Kinetic energy    (eV) =       0.406856          0.423451
       Potential energy  (eV) =    -421.230513       -407.796979
       Total energy      (eV) =    -420.823658       -407.373528
       Temperature       (K)  =      49.961470         51.999354
       Pressure         (GPa) =      12.097783         30.624978
       Cell parameter : a (A) =       7.573539          7.410469
       Cell parameter : b (A) =       7.442345          7.339864
       Cell parameter : c (A) =       7.521336          7.386507
       Cell angle : alpha (o) =      89.613948         89.772770
       Cell angle : beta  (o) =      90.415481         90.361255
       Cell angle : gamma (o) =      90.111212         90.108350
       Cell volume :   (A**3) =     423.917740        401.970059
  ** Time :            0.37500 ps :
     Properties:                   Instantaneous       Averaged
       Kinetic energy    (eV) =       0.407592          0.423239
       Potential energy  (eV) =    -421.190289       -407.975557
       Total energy      (eV) =    -420.782697       -407.552317
       Temperature       (K)  =      50.051862         51.973387
       Pressure         (GPa) =      11.613174         30.345545
       Cell parameter : a (A) =       7.576441          7.412682
       Cell parameter : b (A) =       7.443689          7.341249
       Cell parameter : c (A) =       7.523561          7.388334
       Cell angle : alpha (o) =      89.608235         89.770576
       Cell angle : beta  (o) =      90.415039         90.361972
       Cell angle : gamma (o) =      90.109705         90.108368
       Cell volume :   (A**3) =     424.282002        402.267551
  ** Time :            0.38000 ps :
     Properties:                   Instantaneous       Averaged
       Kinetic energy    (eV) =       0.407299          0.423030
       Potential energy  (eV) =    -421.219636       -408.149821
       Total energy      (eV) =    -420.812336       -407.726791
       Temperature       (K)  =      50.015940         51.947631
       Pressure         (GPa) =      11.836660         30.076547
       Cell parameter : a (A) =       7.579319          7.414874
       Cell parameter : b (A) =       7.444881          7.342612
       Cell parameter : c (A) =       7.525902          7.390144
       Cell angle : alpha (o) =      89.603261         89.768375
       Cell angle : beta  (o) =      90.414121         90.362658
       Cell angle : gamma (o) =      90.108602         90.108371
       Cell volume :   (A**3) =     424.643029        402.561966
  ** Time :            0.38500 ps :
     Properties:                   Instantaneous       Averaged
       Kinetic energy    (eV) =       0.407451          0.422827
       Potential energy  (eV) =    -421.293730       -408.320521
       Total energy      (eV) =    -420.886278       -407.897694
       Temperature       (K)  =      50.034619         51.922787
       Pressure         (GPa) =      11.011839         29.804824
       Cell parameter : a (A) =       7.582108          7.417046
       Cell parameter : b (A) =       7.445928          7.343954
       Cell parameter : c (A) =       7.528197          7.391937
       Cell angle : alpha (o) =      89.598390         89.766167
       Cell angle : beta  (o) =      90.412926         90.363311
       Cell angle : gamma (o) =      90.107612         90.108361
       Cell volume :   (A**3) =     424.988471        402.853219
  ** Time :            0.39000 ps :
     Properties:                   Instantaneous       Averaged
       Kinetic energy    (eV) =       0.406536          0.422619
       Potential energy  (eV) =    -421.272164       -408.486568
       Total energy      (eV) =    -420.865628       -408.063949
       Temperature       (K)  =      49.922238         51.897139
[...]
       Cell parameter : b (A) =       7.371813          7.405302
       Cell parameter : c (A) =       7.708097          7.655466
       Cell angle : alpha (o) =      89.044499         89.213884
       Cell angle : beta  (o) =      88.887292         89.499063
       Cell angle : gamma (o) =      90.358293         90.212641
       Cell volume :   (A**3) =     441.781137        437.990344
  ** Time :            4.90000 ps :
     Properties:                   Instantaneous       Averaged
       Kinetic energy    (eV) =       0.407502          0.408366
       Potential energy  (eV) =    -422.176922       -420.994189
       Total energy      (eV) =    -421.769420       -420.585823
       Temperature       (K)  =      50.040859         50.146939
       Pressure         (GPa) =      -0.708991          2.775796
       Cell parameter : a (A) =       7.777296          7.725898
       Cell parameter : b (A) =       7.371650          7.405267
       Cell parameter : c (A) =       7.708142          7.655520
       Cell angle : alpha (o) =      89.044548         89.213711
       Cell angle : beta  (o) =      88.887464         89.498438
       Cell angle : gamma (o) =      90.357947         90.212789
       Cell volume :   (A**3) =     441.765075        437.994196
  ** Time :            4.90500 ps :
     Properties:                   Instantaneous       Averaged
       Kinetic energy    (eV) =       0.405558          0.408363
       Potential energy  (eV) =    -422.125339       -420.995342
       Total energy      (eV) =    -421.719781       -420.586979
       Temperature       (K)  =      49.802078         50.146587
       Pressure         (GPa) =       0.757203          2.773771
       Cell parameter : a (A) =       7.777246          7.725950
       Cell parameter : b (A) =       7.371662          7.405233
       Cell parameter : c (A) =       7.708088          7.655574
       Cell angle : alpha (o) =      89.044725         89.213539
       Cell angle : beta  (o) =      88.887495         89.497816
       Cell angle : gamma (o) =      90.358674         90.212938
       Cell volume :   (A**3) =     441.759872        437.998034
  ** Time :            4.91000 ps :
     Properties:                   Instantaneous       Averaged
       Kinetic energy    (eV) =       0.407205          0.408362
       Potential energy  (eV) =    -422.069030       -420.996436
       Total energy      (eV) =    -421.661825       -420.588074
       Temperature       (K)  =      50.004362         50.146442
       Pressure         (GPa) =      -0.442063          2.770425
       Cell parameter : a (A) =       7.777238          7.726002
       Cell parameter : b (A) =       7.371794          7.405199
       Cell parameter : c (A) =       7.708165          7.655627
       Cell angle : alpha (o) =      89.044204         89.213366
       Cell angle : beta  (o) =      88.885382         89.497192
       Cell angle : gamma (o) =      90.359656         90.213087
       Cell volume :   (A**3) =     441.771302        438.001877
  ** Time :            4.91500 ps :
     Properties:                   Instantaneous       Averaged
       Kinetic energy    (eV) =       0.407935          0.408362
       Potential energy  (eV) =    -422.131564       -420.997590
       Total energy      (eV) =    -421.723628       -420.589229
       Temperature       (K)  =      50.094063         50.146389
       Pressure         (GPa) =       0.070133          2.767760
       Cell parameter : a (A) =       7.777236          7.726054
       Cell parameter : b (A) =       7.371696          7.405165
       Cell parameter : c (A) =       7.708046          7.655680
       Cell angle : alpha (o) =      89.042757         89.213193
       Cell angle : beta  (o) =      88.883978         89.496568
       Cell angle : gamma (o) =      90.358683         90.213235
       Cell volume :   (A**3) =     441.758142        438.005698
  ** Time :            4.92000 ps :
     Properties:                   Instantaneous       Averaged
       Kinetic energy    (eV) =       0.407124          0.408360
       Potential energy  (eV) =    -422.172593       -420.998785
       Total energy      (eV) =    -421.765469       -420.590424
       Temperature       (K)  =      49.994456         50.146235
       Pressure         (GPa) =       1.443555          2.766236
       Cell parameter : a (A) =       7.777378          7.726106
       Cell parameter : b (A) =       7.371756          7.405131
       Cell parameter : c (A) =       7.708343          7.655734
       Cell angle : alpha (o) =      89.041202         89.213018
       Cell angle : beta  (o) =      88.883858         89.495946
       Cell angle : gamma (o) =      90.358122         90.213383
       Cell volume :   (A**3) =     441.786595        438.009540
  ** Time :            4.92500 ps :
     Properties:                   Instantaneous       Averaged
       Kinetic energy    (eV) =       0.407678          0.408360
       Potential energy  (eV) =    -422.134619       -420.999938
       Total energy      (eV) =    -421.726941       -420.591578
       Temperature       (K)  =      50.062470         50.146150
       Pressure         (GPa) =       1.491487          2.764601
       Cell parameter : a (A) =       7.777645          7.726159
       Cell parameter : b (A) =       7.372157          7.405098
       Cell parameter : c (A) =       7.708607          7.655788
       Cell angle : alpha (o) =      89.039715         89.212842
       Cell angle : beta  (o) =      88.886037         89.495326
       Cell angle : gamma (o) =      90.358343         90.213530
       Cell volume :   (A**3) =     441.841072        438.013430
  ** Time :            4.93000 ps :
     Properties:                   Instantaneous       Averaged
       Kinetic energy    (eV) =       0.407960          0.408359
       Potential energy  (eV) =    -422.224890       -421.001180
       Total energy      (eV) =    -421.816930       -420.592821
       Temperature       (K)  =      50.097074         50.146100
       Pressure         (GPa) =       1.017733          2.762633
       Cell parameter : a (A) =       7.777857          7.726211
       Cell parameter : b (A) =       7.372370          7.405064
       Cell parameter : c (A) =       7.708724          7.655841
       Cell angle : alpha (o) =      89.038209         89.212665
       Cell angle : beta  (o) =      88.886975         89.494709
       Cell angle : gamma (o) =      90.358458         90.213677
       Cell volume :   (A**3) =     441.872552        438.017344
  ** Time :            4.93500 ps :
     Properties:                   Instantaneous       Averaged
       Kinetic energy    (eV) =       0.405794          0.408357
       Potential energy  (eV) =    -422.214697       -421.002410
       Total energy      (eV) =    -421.808903       -420.594053
       Temperature       (K)  =      49.831138         50.145781
       Pressure         (GPa) =       0.547552          2.760176
       Cell parameter : a (A) =       7.778109          7.726264
       Cell parameter : b (A) =       7.372628          7.405032
       Cell parameter : c (A) =       7.708801          7.655895
       Cell angle : alpha (o) =      89.037701         89.212487
       Cell angle : beta  (o) =      88.886436         89.494093
       Cell angle : gamma (o) =      90.358194         90.213823
       Cell volume :   (A**3) =     441.906597        438.021285
  ** Time :            4.94000 ps :
     Properties:                   Instantaneous       Averaged
       Kinetic energy    (eV) =       0.406187          0.408354
       Potential energy  (eV) =    -422.082099       -421.003502
       Total energy      (eV) =    -421.675913       -420.595148
       Temperature       (K)  =      49.879331         50.145511
       Pressure         (GPa) =       0.898298          2.758207
       Cell parameter : a (A) =       7.778499          7.726317
       Cell parameter : b (A) =       7.372619          7.404999
       Cell parameter : c (A) =       7.708662          7.655948
       Cell angle : alpha (o) =      89.037106         89.212310
       Cell angle : beta  (o) =      88.885721         89.493477
       Cell angle : gamma (o) =      90.358036         90.213969
       Cell volume :   (A**3) =     441.920152        438.025231
  ** Time :            4.94500 ps :
     Properties:                   Instantaneous       Averaged
       Kinetic energy    (eV) =       0.407025          0.408353
       Potential energy  (eV) =    -422.059236       -421.004570
       Total energy      (eV) =    -421.652211       -420.596217
       Temperature       (K)  =      49.982234         50.145346
       Pressure         (GPa) =       0.956559          2.756145
       Cell parameter : a (A) =       7.778966          7.726370
       Cell parameter : b (A) =       7.372536          7.404966
       Cell parameter : c (A) =       7.708960          7.656002
       Cell angle : alpha (o) =      89.036308         89.212132
       Cell angle : beta  (o) =      88.886156         89.492863
       Cell angle : gamma (o) =      90.358016         90.214115
       Cell volume :   (A**3) =     441.958685        438.029208
  ** Time :            4.95000 ps :
     Properties:                   Instantaneous       Averaged
       Kinetic energy    (eV) =       0.407098          0.408352
       Potential energy  (eV) =    -422.081079       -421.005657
       Total energy      (eV) =    -421.673982       -420.597305
       Temperature       (K)  =      49.991177         50.145190
       Pressure         (GPa) =      -0.239470          2.753074
       Cell parameter : a (A) =       7.779073          7.726423
       Cell parameter : b (A) =       7.372454          7.404933
       Cell parameter : c (A) =       7.709065          7.656056
       Cell angle : alpha (o) =      89.037340         89.211955
       Cell angle : beta  (o) =      88.885828         89.492250
       Cell angle : gamma (o) =      90.357784         90.214260
       Cell volume :   (A**3) =     441.965971        438.033185
  ** Time :            4.95500 ps :
     Properties:                   Instantaneous       Averaged
       Kinetic energy    (eV) =       0.407675          0.408351
       Potential energy  (eV) =    -422.128903       -421.006791
       Total energy      (eV) =    -421.721228       -420.598440
       Temperature       (K)  =      50.062137         50.145107
       Pressure         (GPa) =      -0.837768          2.749566
       Cell parameter : a (A) =       7.778950          7.726476
       Cell parameter : b (A) =       7.372181          7.404900
       Cell parameter : c (A) =       7.709152          7.656109
       Cell angle : alpha (o) =      89.038981         89.211781
       Cell angle : beta  (o) =      88.883407         89.491636
       Cell angle : gamma (o) =      90.358753         90.214406
       Cell volume :   (A**3) =     441.947403        438.037134
  ** Time :            4.96000 ps :
     Properties:                   Instantaneous       Averaged
       Kinetic energy    (eV) =       0.407005          0.408350
       Potential energy  (eV) =    -422.152156       -421.007945
       Total energy      (eV) =    -421.745150       -420.599595
       Temperature       (K)  =      49.979864         50.144940
       Pressure         (GPa) =       1.008400          2.747833
       Cell parameter : a (A) =       7.779007          7.726529
       Cell parameter : b (A) =       7.372064          7.404867
       Cell parameter : c (A) =       7.709154          7.656163
       Cell angle : alpha (o) =      89.039966         89.211608
       Cell angle : beta  (o) =      88.882841         89.491022
       Cell angle : gamma (o) =      90.359918         90.214553
       Cell volume :   (A**3) =     441.943740        438.041073
  ** Time :            4.96500 ps :
     Properties:                   Instantaneous       Averaged
       Kinetic energy    (eV) =       0.407410          0.408349
       Potential energy  (eV) =    -422.167423       -421.009113
       Total energy      (eV) =    -421.760013       -420.600764
       Temperature       (K)  =      50.029532         50.144824
       Pressure         (GPa) =       1.495660          2.746261
       Cell parameter : a (A) =       7.779337          7.726582
       Cell parameter : b (A) =       7.372138          7.404834
       Cell parameter : c (A) =       7.709623          7.656217
       Cell angle : alpha (o) =      89.040846         89.211436
       Cell angle : beta  (o) =      88.882811         89.490409
       Cell angle : gamma (o) =      90.361130         90.214700
       Cell volume :   (A**3) =     441.993918        438.045053
  ** Time :            4.97000 ps :
     Properties:                   Instantaneous       Averaged
       Kinetic energy    (eV) =       0.407227          0.408348
       Potential energy  (eV) =    -422.147858       -421.010258
       Total energy      (eV) =    -421.740630       -420.601911
       Temperature       (K)  =      50.007101         50.144685
       Pressure         (GPa) =      -0.472551          2.742928
       Cell parameter : a (A) =       7.779612          7.726636
       Cell parameter : b (A) =       7.371989          7.404801
       Cell parameter : c (A) =       7.709772          7.656270
       Cell angle : alpha (o) =      89.041515         89.211265
       Cell angle : beta  (o) =      88.882558         89.489798
       Cell angle : gamma (o) =      90.361108         90.214847
       Cell volume :   (A**3) =     442.009106        438.049041
  ** Time :            4.97500 ps :
     Properties:                   Instantaneous       Averaged
       Kinetic energy    (eV) =       0.407466          0.408347
       Potential energy  (eV) =    -422.152093       -421.011406
       Total energy      (eV) =    -421.744627       -420.603059
       Temperature       (K)  =      50.036413         50.144576
       Pressure         (GPa) =      -0.134697          2.740107
       Cell parameter : a (A) =       7.779702          7.726689
       Cell parameter : b (A) =       7.371773          7.404768
       Cell parameter : c (A) =       7.709715          7.656324
       Cell angle : alpha (o) =      89.041471         89.211094
       Cell angle : beta  (o) =      88.880593         89.489186
       Cell angle : gamma (o) =      90.361245         90.214995
       Cell volume :   (A**3) =     441.997702        438.053010
  ** Time :            4.98000 ps :
     Properties:                   Instantaneous       Averaged
       Kinetic energy    (eV) =       0.406262          0.408345
       Potential energy  (eV) =    -422.107273       -421.012506
       Total energy      (eV) =    -421.701011       -420.604162
       Temperature       (K)  =      49.888543         50.144319
       Pressure         (GPa) =       0.733040          2.738057
       Cell parameter : a (A) =       7.779620          7.726742
       Cell parameter : b (A) =       7.371886          7.404735
       Cell parameter : c (A) =       7.709780          7.656378
       Cell angle : alpha (o) =      89.041095         89.210923
       Cell angle : beta  (o) =      88.879830         89.488574
       Cell angle : gamma (o) =      90.361595         90.215142
       Cell volume :   (A**3) =     442.003394        438.056976
  ** Time :            4.98500 ps :
     Properties:                   Instantaneous       Averaged
       Kinetic energy    (eV) =       0.407683          0.408344
       Potential energy  (eV) =    -422.169978       -421.013667
       Total energy      (eV) =    -421.762294       -420.605323
       Temperature       (K)  =      50.063103         50.144238
       Pressure         (GPa) =       0.064045          2.735276
       Cell parameter : a (A) =       7.779471          7.726795
       Cell parameter : b (A) =       7.372222          7.404702
       Cell parameter : c (A) =       7.709852          7.656431
       Cell angle : alpha (o) =      89.040937         89.210753
       Cell angle : beta  (o) =      88.880355         89.487964
       Cell angle : gamma (o) =      90.361928         90.215289
       Cell volume :   (A**3) =     442.019234        438.060950
  ** Time :            4.99000 ps :
     Properties:                   Instantaneous       Averaged
       Kinetic energy    (eV) =       0.406814          0.408342
       Potential energy  (eV) =    -422.192758       -421.014849
       Total energy      (eV) =    -421.785943       -420.606506
       Temperature       (K)  =      49.956378         50.144050
       Pressure         (GPa) =      -1.401870          2.731256
       Cell parameter : a (A) =       7.779237          7.726848
       Cell parameter : b (A) =       7.372173          7.404670
       Cell parameter : c (A) =       7.709789          7.656485
       Cell angle : alpha (o) =      89.040943         89.210583
       Cell angle : beta  (o) =      88.878591         89.487353
       Cell angle : gamma (o) =      90.362660         90.215437
       Cell volume :   (A**3) =     441.999042        438.064896
  ** Time :            4.99500 ps :
     Properties:                   Instantaneous       Averaged
       Kinetic energy    (eV) =       0.406424          0.408341
       Potential energy  (eV) =    -422.190068       -421.016025
       Total energy      (eV) =    -421.783643       -420.607685
       Temperature       (K)  =      49.908523         50.143814
       Pressure         (GPa) =      -0.293922          2.728454
       Cell parameter : a (A) =       7.779058          7.726900
       Cell parameter : b (A) =       7.371988          7.404637
       Cell parameter : c (A) =       7.709529          7.656538
       Cell angle : alpha (o) =      89.040312         89.210412
       Cell angle : beta  (o) =      88.876284         89.486742
       Cell angle : gamma (o) =      90.362917         90.215584
       Cell volume :   (A**3) =     441.962435        438.068798
  ** Time :            5.00000 ps :
     Properties:                   Instantaneous       Averaged
       Kinetic energy    (eV) =       0.407189          0.408339
       Potential energy  (eV) =    -422.136127       -421.017145
       Total energy      (eV) =    -421.728939       -420.608806
       Temperature       (K)  =      50.002365         50.143672
       Pressure         (GPa) =       0.402615          2.726038
       Cell parameter : a (A) =       7.778986          7.726952
       Cell parameter : b (A) =       7.372097          7.404604
       Cell parameter : c (A) =       7.709748          7.656591
       Cell angle : alpha (o) =      89.039628         89.210242
       Cell angle : beta  (o) =      88.873728         89.486129
       Cell angle : gamma (o) =      90.363802         90.215732
       Cell volume :   (A**3) =     441.976956        438.072706

  Peak dynamic memory used =       1.98 MB 


  Timing analysis for GULP :

--------------------------------------------------------------------------------
  Task / Subroutine                                          Time (Seconds)
--------------------------------------------------------------------------------
  Calculation of Brenner energy and derivatives                 396.6679
  Calculation of matrix inversion                                 0.2206
  Molecular dynamics - update of geometry                         1.5048
  Molecular dynamics - predictor                                  0.1338
  Molecular dynamics - corrector                                  2.2971
  Molecular dynamics - velocity correction                        1.0872
--------------------------------------------------------------------------------
  Total CPU time                                                403.4001
--------------------------------------------------------------------------------


  CIF file written as dm.cif


  Job Finished at 21:47.25 30th July       2020                               

