********************************************************************************
*                       GENERAL UTILITY LATTICE PROGRAM                        *
*                                 Julian Gale                                  *
*                       Curtin Institute for Computation                       *
*                    School of Molecular and Life Sciences                     *
*                    Curtin University, Western Australia                      *
********************************************************************************
* Version = 5.2.0 * Last modified =  17th December 2019                        *
********************************************************************************
*  single       - perform a single point run                                   *
*  property     - calculate properties for final geometry                      *
*  phonon       - calculate phonons for final geometry                         *
********************************************************************************
* ASE calculation                                                              *
********************************************************************************


  Job Started  at 09:35.04 31st July       2020                               

  Number of CPUs =     1


  Total number of configurations input =      1

********************************************************************************
*  Input for Configuration =   1                                               *
********************************************************************************

  Formula = C8                                                          

  Number of irreducible atoms/shells =       8


  Total number atoms/shells =       8

  Dimensionality = 3               :  Bulk   



  Cartesian lattice vectors (Angstroms) :

        3.543000    0.000000    0.000000
        0.000000    3.543000    0.000000
        0.000000    0.000000    3.543000

  Cell parameters (Angstroms/Degrees):

  a =       3.5430    alpha =  90.0000
  b =       3.5430    beta  =  90.0000
  c =       3.5430    gamma =  90.0000

  Initial cell volume =          44.474744 Angs**3

  Shrinking factors =      8     8     8

  Temperature of configuration =   10.0     K 

  Pressure of configuration =         0.000 GPa 

  Fractional coordinates of asymmetric unit :

--------------------------------------------------------------------------------
   No.  Atomic       x           y          z         Charge      Occupancy
        Label      (Frac)      (Frac)     (Frac)        (e)         (Frac)  
--------------------------------------------------------------------------------
      1 C     c    0.000000    0.000000    0.000000     0.00000    1.000000    
      2 C     c    0.000000    0.500000    0.500000     0.00000    1.000000    
      3 C     c    0.500000    0.500000    0.000000     0.00000    1.000000    
      4 C     c    0.500000    0.000000    0.500000     0.00000    1.000000    
      5 C     c    0.750000    0.250000    0.750000     0.00000    1.000000    
      6 C     c    0.250000    0.250000    0.250000     0.00000    1.000000    
      7 C     c    0.250000    0.750000    0.750000     0.00000    1.000000    
      8 C     c    0.750000    0.750000    0.250000     0.00000    1.000000    
--------------------------------------------------------------------------------


  Brillouin zone sampling points :

--------------------------------------------------------------------------------
  Point number          x          y          z            Weight
--------------------------------------------------------------------------------
        1           0.062500   0.062500   0.062500     0.00390625
        2           0.062500   0.062500   0.187500     0.00390625
        3           0.062500   0.062500   0.312500     0.00390625
        4           0.062500   0.062500   0.437500     0.00390625
        5           0.062500   0.062500   0.562500     0.00390625
        6           0.062500   0.062500   0.687500     0.00390625
        7           0.062500   0.062500   0.812500     0.00390625
        8           0.062500   0.062500   0.937500     0.00390625
        9           0.062500   0.187500   0.062500     0.00390625
       10           0.062500   0.187500   0.187500     0.00390625
       11           0.062500   0.187500   0.312500     0.00390625
       12           0.062500   0.187500   0.437500     0.00390625
       13           0.062500   0.187500   0.562500     0.00390625
       14           0.062500   0.187500   0.687500     0.00390625
       15           0.062500   0.187500   0.812500     0.00390625
       16           0.062500   0.187500   0.937500     0.00390625
       17           0.062500   0.312500   0.062500     0.00390625
       18           0.062500   0.312500   0.187500     0.00390625
       19           0.062500   0.312500   0.312500     0.00390625
       20           0.062500   0.312500   0.437500     0.00390625
       21           0.062500   0.312500   0.562500     0.00390625
       22           0.062500   0.312500   0.687500     0.00390625
       23           0.062500   0.312500   0.812500     0.00390625
       24           0.062500   0.312500   0.937500     0.00390625
       25           0.062500   0.437500   0.062500     0.00390625
       26           0.062500   0.437500   0.187500     0.00390625
       27           0.062500   0.437500   0.312500     0.00390625
       28           0.062500   0.437500   0.437500     0.00390625
       29           0.062500   0.437500   0.562500     0.00390625
       30           0.062500   0.437500   0.687500     0.00390625
       31           0.062500   0.437500   0.812500     0.00390625
       32           0.062500   0.437500   0.937500     0.00390625
       33           0.062500   0.562500   0.062500     0.00390625
       34           0.062500   0.562500   0.187500     0.00390625
       35           0.062500   0.562500   0.312500     0.00390625
       36           0.062500   0.562500   0.437500     0.00390625
       37           0.062500   0.562500   0.562500     0.00390625
       38           0.062500   0.562500   0.687500     0.00390625
       39           0.062500   0.562500   0.812500     0.00390625
       40           0.062500   0.562500   0.937500     0.00390625
       41           0.062500   0.687500   0.062500     0.00390625
       42           0.062500   0.687500   0.187500     0.00390625
       43           0.062500   0.687500   0.312500     0.00390625
       44           0.062500   0.687500   0.437500     0.00390625
       45           0.062500   0.687500   0.562500     0.00390625
       46           0.062500   0.687500   0.687500     0.00390625
       47           0.062500   0.687500   0.812500     0.00390625
       48           0.062500   0.687500   0.937500     0.00390625
       49           0.062500   0.812500   0.062500     0.00390625
       50           0.062500   0.812500   0.187500     0.00390625
       51           0.062500   0.812500   0.312500     0.00390625
       52           0.062500   0.812500   0.437500     0.00390625
       53           0.062500   0.812500   0.562500     0.00390625
       54           0.062500   0.812500   0.687500     0.00390625
       55           0.062500   0.812500   0.812500     0.00390625
       56           0.062500   0.812500   0.937500     0.00390625
       57           0.062500   0.937500   0.062500     0.00390625
       58           0.062500   0.937500   0.187500     0.00390625
       59           0.062500   0.937500   0.312500     0.00390625
       60           0.062500   0.937500   0.437500     0.00390625
       61           0.062500   0.937500   0.562500     0.00390625
       62           0.062500   0.937500   0.687500     0.00390625
       63           0.062500   0.937500   0.812500     0.00390625
       64           0.062500   0.937500   0.937500     0.00390625
       65           0.187500   0.062500   0.062500     0.00390625
       66           0.187500   0.062500   0.187500     0.00390625
       67           0.187500   0.062500   0.312500     0.00390625
       68           0.187500   0.062500   0.437500     0.00390625
       69           0.187500   0.062500   0.562500     0.00390625
       70           0.187500   0.062500   0.687500     0.00390625
       71           0.187500   0.062500   0.812500     0.00390625
       72           0.187500   0.062500   0.937500     0.00390625
       73           0.187500   0.187500   0.062500     0.00390625
       74           0.187500   0.187500   0.187500     0.00390625
       75           0.187500   0.187500   0.312500     0.00390625
       76           0.187500   0.187500   0.437500     0.00390625
       77           0.187500   0.187500   0.562500     0.00390625
       78           0.187500   0.187500   0.687500     0.00390625
       79           0.187500   0.187500   0.812500     0.00390625
       80           0.187500   0.187500   0.937500     0.00390625
       81           0.187500   0.312500   0.062500     0.00390625
       82           0.187500   0.312500   0.187500     0.00390625
       83           0.187500   0.312500   0.312500     0.00390625
       84           0.187500   0.312500   0.437500     0.00390625
       85           0.187500   0.312500   0.562500     0.00390625
       86           0.187500   0.312500   0.687500     0.00390625
       87           0.187500   0.312500   0.812500     0.00390625
       88           0.187500   0.312500   0.937500     0.00390625
       89           0.187500   0.437500   0.062500     0.00390625
       90           0.187500   0.437500   0.187500     0.00390625
       91           0.187500   0.437500   0.312500     0.00390625
       92           0.187500   0.437500   0.437500     0.00390625
       93           0.187500   0.437500   0.562500     0.00390625
       94           0.187500   0.437500   0.687500     0.00390625
       95           0.187500   0.437500   0.812500     0.00390625
       96           0.187500   0.437500   0.937500     0.00390625
       97           0.187500   0.562500   0.062500     0.00390625
       98           0.187500   0.562500   0.187500     0.00390625
       99           0.187500   0.562500   0.312500     0.00390625
      100           0.187500   0.562500   0.437500     0.00390625
      101           0.187500   0.562500   0.562500     0.00390625
      102           0.187500   0.562500   0.687500     0.00390625
      103           0.187500   0.562500   0.812500     0.00390625
      104           0.187500   0.562500   0.937500     0.00390625
      105           0.187500   0.687500   0.062500     0.00390625
      106           0.187500   0.687500   0.187500     0.00390625
      107           0.187500   0.687500   0.312500     0.00390625
      108           0.187500   0.687500   0.437500     0.00390625
      109           0.187500   0.687500   0.562500     0.00390625
      110           0.187500   0.687500   0.687500     0.00390625
      111           0.187500   0.687500   0.812500     0.00390625
      112           0.187500   0.687500   0.937500     0.00390625
      113           0.187500   0.812500   0.062500     0.00390625
      114           0.187500   0.812500   0.187500     0.00390625
      115           0.187500   0.812500   0.312500     0.00390625
      116           0.187500   0.812500   0.437500     0.00390625
      117           0.187500   0.812500   0.562500     0.00390625
      118           0.187500   0.812500   0.687500     0.00390625
      119           0.187500   0.812500   0.812500     0.00390625
      120           0.187500   0.812500   0.937500     0.00390625
      121           0.187500   0.937500   0.062500     0.00390625
      122           0.187500   0.937500   0.187500     0.00390625
      123           0.187500   0.937500   0.312500     0.00390625
      124           0.187500   0.937500   0.437500     0.00390625
      125           0.187500   0.937500   0.562500     0.00390625
      126           0.187500   0.937500   0.687500     0.00390625
      127           0.187500   0.937500   0.812500     0.00390625
      128           0.187500   0.937500   0.937500     0.00390625
      129           0.312500   0.062500   0.062500     0.00390625
      130           0.312500   0.062500   0.187500     0.00390625
      131           0.312500   0.062500   0.312500     0.00390625
      132           0.312500   0.062500   0.437500     0.00390625
      133           0.312500   0.062500   0.562500     0.00390625
      134           0.312500   0.062500   0.687500     0.00390625
      135           0.312500   0.062500   0.812500     0.00390625
      136           0.312500   0.062500   0.937500     0.00390625
      137           0.312500   0.187500   0.062500     0.00390625
      138           0.312500   0.187500   0.187500     0.00390625
      139           0.312500   0.187500   0.312500     0.00390625
      140           0.312500   0.187500   0.437500     0.00390625
      141           0.312500   0.187500   0.562500     0.00390625
      142           0.312500   0.187500   0.687500     0.00390625
      143           0.312500   0.187500   0.812500     0.00390625
      144           0.312500   0.187500   0.937500     0.00390625
      145           0.312500   0.312500   0.062500     0.00390625
      146           0.312500   0.312500   0.187500     0.00390625
      147           0.312500   0.312500   0.312500     0.00390625
      148           0.312500   0.312500   0.437500     0.00390625
      149           0.312500   0.312500   0.562500     0.00390625
      150           0.312500   0.312500   0.687500     0.00390625
      151           0.312500   0.312500   0.812500     0.00390625
      152           0.312500   0.312500   0.937500     0.00390625
      153           0.312500   0.437500   0.062500     0.00390625
      154           0.312500   0.437500   0.187500     0.00390625
      155           0.312500   0.437500   0.312500     0.00390625
      156           0.312500   0.437500   0.437500     0.00390625
      157           0.312500   0.437500   0.562500     0.00390625
      158           0.312500   0.437500   0.687500     0.00390625
      159           0.312500   0.437500   0.812500     0.00390625
      160           0.312500   0.437500   0.937500     0.00390625
      161           0.312500   0.562500   0.062500     0.00390625
      162           0.312500   0.562500   0.187500     0.00390625
      163           0.312500   0.562500   0.312500     0.00390625
      164           0.312500   0.562500   0.437500     0.00390625
      165           0.312500   0.562500   0.562500     0.00390625
      166           0.312500   0.562500   0.687500     0.00390625
      167           0.312500   0.562500   0.812500     0.00390625
      168           0.312500   0.562500   0.937500     0.00390625
      169           0.312500   0.687500   0.062500     0.00390625
      170           0.312500   0.687500   0.187500     0.00390625
      171           0.312500   0.687500   0.312500     0.00390625
      172           0.312500   0.687500   0.437500     0.00390625
      173           0.312500   0.687500   0.562500     0.00390625
      174           0.312500   0.687500   0.687500     0.00390625
      175           0.312500   0.687500   0.812500     0.00390625
      176           0.312500   0.687500   0.937500     0.00390625
      177           0.312500   0.812500   0.062500     0.00390625
      178           0.312500   0.812500   0.187500     0.00390625
      179           0.312500   0.812500   0.312500     0.00390625
      180           0.312500   0.812500   0.437500     0.00390625
      181           0.312500   0.812500   0.562500     0.00390625
      182           0.312500   0.812500   0.687500     0.00390625
      183           0.312500   0.812500   0.812500     0.00390625
      184           0.312500   0.812500   0.937500     0.00390625
      185           0.312500   0.937500   0.062500     0.00390625
      186           0.312500   0.937500   0.187500     0.00390625
      187           0.312500   0.937500   0.312500     0.00390625
      188           0.312500   0.937500   0.437500     0.00390625
      189           0.312500   0.937500   0.562500     0.00390625
      190           0.312500   0.937500   0.687500     0.00390625
      191           0.312500   0.937500   0.812500     0.00390625
      192           0.312500   0.937500   0.937500     0.00390625
      193           0.437500   0.062500   0.062500     0.00390625
      194           0.437500   0.062500   0.187500     0.00390625
      195           0.437500   0.062500   0.312500     0.00390625
      196           0.437500   0.062500   0.437500     0.00390625
      197           0.437500   0.062500   0.562500     0.00390625
      198           0.437500   0.062500   0.687500     0.00390625
      199           0.437500   0.062500   0.812500     0.00390625
      200           0.437500   0.062500   0.937500     0.00390625
      201           0.437500   0.187500   0.062500     0.00390625
      202           0.437500   0.187500   0.187500     0.00390625
      203           0.437500   0.187500   0.312500     0.00390625
      204           0.437500   0.187500   0.437500     0.00390625
      205           0.437500   0.187500   0.562500     0.00390625
      206           0.437500   0.187500   0.687500     0.00390625
      207           0.437500   0.187500   0.812500     0.00390625
      208           0.437500   0.187500   0.937500     0.00390625
      209           0.437500   0.312500   0.062500     0.00390625
      210           0.437500   0.312500   0.187500     0.00390625
      211           0.437500   0.312500   0.312500     0.00390625
      212           0.437500   0.312500   0.437500     0.00390625
      213           0.437500   0.312500   0.562500     0.00390625
      214           0.437500   0.312500   0.687500     0.00390625
      215           0.437500   0.312500   0.812500     0.00390625
      216           0.437500   0.312500   0.937500     0.00390625
      217           0.437500   0.437500   0.062500     0.00390625
      218           0.437500   0.437500   0.187500     0.00390625
      219           0.437500   0.437500   0.312500     0.00390625
      220           0.437500   0.437500   0.437500     0.00390625
      221           0.437500   0.437500   0.562500     0.00390625
      222           0.437500   0.437500   0.687500     0.00390625
      223           0.437500   0.437500   0.812500     0.00390625
      224           0.437500   0.437500   0.937500     0.00390625
      225           0.437500   0.562500   0.062500     0.00390625
      226           0.437500   0.562500   0.187500     0.00390625
      227           0.437500   0.562500   0.312500     0.00390625
      228           0.437500   0.562500   0.437500     0.00390625
      229           0.437500   0.562500   0.562500     0.00390625
      230           0.437500   0.562500   0.687500     0.00390625
      231           0.437500   0.562500   0.812500     0.00390625
      232           0.437500   0.562500   0.937500     0.00390625
      233           0.437500   0.687500   0.062500     0.00390625
      234           0.437500   0.687500   0.187500     0.00390625
      235           0.437500   0.687500   0.312500     0.00390625
      236           0.437500   0.687500   0.437500     0.00390625
      237           0.437500   0.687500   0.562500     0.00390625
      238           0.437500   0.687500   0.687500     0.00390625
      239           0.437500   0.687500   0.812500     0.00390625
      240           0.437500   0.687500   0.937500     0.00390625
      241           0.437500   0.812500   0.062500     0.00390625
      242           0.437500   0.812500   0.187500     0.00390625
      243           0.437500   0.812500   0.312500     0.00390625
      244           0.437500   0.812500   0.437500     0.00390625
      245           0.437500   0.812500   0.562500     0.00390625
      246           0.437500   0.812500   0.687500     0.00390625
      247           0.437500   0.812500   0.812500     0.00390625
      248           0.437500   0.812500   0.937500     0.00390625
      249           0.437500   0.937500   0.062500     0.00390625
      250           0.437500   0.937500   0.187500     0.00390625
      251           0.437500   0.937500   0.312500     0.00390625
      252           0.437500   0.937500   0.437500     0.00390625
      253           0.437500   0.937500   0.562500     0.00390625
      254           0.437500   0.937500   0.687500     0.00390625
      255           0.437500   0.937500   0.812500     0.00390625
      256           0.437500   0.937500   0.937500     0.00390625
--------------------------------------------------------------------------------


********************************************************************************
*  General input information                                                   *
********************************************************************************

  Species output for all configurations : 

--------------------------------------------------------------------------------
  Species    Type    Atomic    Atomic    Charge       Radii (Angs)     Library
                     Number     Mass       (e)     Cova   Ionic  VDW   Symbol
--------------------------------------------------------------------------------
    C        Core        6      12.01   0.000000   0.770  0.000  1.530          
--------------------------------------------------------------------------------


  Lattice summation method               =    Ewald          (3-D)
                                         =    Parry          (2-D)
                                         =    Saunders et al (1-D)
  Accuracy factor for lattice sums       =   12.000


  Analytic derivatives to be used

  Time limit = Infinity

  Maximum range for interatomic potentials =    100000.000000 Angstroms

  Brenner et al 2002 potential to be used with explicit splines for P


********************************************************************************
*  Output for configuration   1                                                *
********************************************************************************


  Components of energy : 

--------------------------------------------------------------------------------
  Interatomic potentials     =           0.00000000 eV    
  Brenner potentials         =         -58.93444498 eV    
  Monopole - monopole (real) =           0.00000000 eV    
  Monopole - monopole (recip)=           0.00000000 eV    
  Monopole - monopole (total)=           0.00000000 eV    
--------------------------------------------------------------------------------
  Total lattice energy       =         -58.93444498 eV    
--------------------------------------------------------------------------------
  Total lattice energy       =           -5686.2730 kJ/(mole unit cells)
--------------------------------------------------------------------------------


  Elastic Constant Matrix: (Units=GPa)

-------------------------------------------------------------------------------
  Indices      1         2         3         4         5         6    
-------------------------------------------------------------------------------
       1   1130.3699  146.4687  146.4687    0.0000    0.0000    0.0000
       2    146.4687 1130.3699  146.4687    0.0000    0.0000    0.0000
       3    146.4687  146.4687 1130.3699    0.0000    0.0000    0.0000
       4      0.0000    0.0000    0.0000  760.6902   -0.0000   -0.0000
       5      0.0000    0.0000    0.0000   -0.0000  760.6902   -0.0000
       6      0.0000    0.0000    0.0000   -0.0000   -0.0000  760.6902
-------------------------------------------------------------------------------


  Elastic Compliance Matrix: (Units=1/GPa)

-------------------------------------------------------------------------------
  Indices      1         2         3         4         5         6    
-------------------------------------------------------------------------------
       1    0.000912 -0.000105 -0.000105 -0.000000 -0.000000 -0.000000
       2   -0.000105  0.000912 -0.000105 -0.000000 -0.000000 -0.000000
       3   -0.000105 -0.000105  0.000912 -0.000000 -0.000000 -0.000000
       4   -0.000000 -0.000000 -0.000000  0.001315  0.000000  0.000000
       5   -0.000000 -0.000000 -0.000000  0.000000  0.001315  0.000000
       6   -0.000000 -0.000000 -0.000000  0.000000  0.000000  0.001315
-------------------------------------------------------------------------------

  Mechanical properties :

-------------------------------------------------------------------------------
  Convention :                    Reuss         Voigt         Hill
-------------------------------------------------------------------------------
  Bulk  Modulus (GPa)     =     474.43580     474.43580     474.43580
  Shear Modulus (GPa)     =     624.27928     653.19435     638.73681
-------------------------------------------------------------------------------
  Velocity S-wave (km/s)  =      13.19173      13.49377      13.34361
  Velocity P-wave (km/s)  =      19.08614      19.36564      19.22640
-------------------------------------------------------------------------------
  Compressibility (1/GPa) =    0.00210777
-------------------------------------------------------------------------------
  Stress axis :                     x             y             z
-------------------------------------------------------------------------------
  Youngs Moduli (GPa)     =    1096.76645    1096.76645    1096.76645
-------------------------------------------------------------------------------
  Poissons Ratio (x)      =                     0.11471       0.11471
  Poissons Ratio (y)      =       0.11471                     0.11471
  Poissons Ratio (z)      =       0.11471       0.11471
-------------------------------------------------------------------------------


  Piezoelectric Strain Matrix: (Units=C/m**2)

-------------------------------------------------------------------------------
  Indices      1         2         3         4         5         6    
-------------------------------------------------------------------------------
       x    -0.00000  -0.00000  -0.00000  -0.00000  -0.00000  -0.00000
       y    -0.00000  -0.00000  -0.00000  -0.00000  -0.00000  -0.00000
       z    -0.00000  -0.00000  -0.00000  -0.00000  -0.00000  -0.00000
-------------------------------------------------------------------------------


  Piezoelectric Stress Matrix: (Units=10**-11 C/N)

-------------------------------------------------------------------------------
  Indices      1         2         3         4         5         6    
-------------------------------------------------------------------------------
       x     0.00000   0.00000   0.00000   0.00000   0.00000   0.00000
       y     0.00000   0.00000   0.00000   0.00000   0.00000   0.00000
       z     0.00000   0.00000   0.00000   0.00000   0.00000   0.00000
-------------------------------------------------------------------------------


  Static dielectric constant tensor : 

-------------------------------------------------------------------------------
              x         y         z
-------------------------------------------------------------------------------
       x     1.00000   0.00000   0.00000
       y     0.00000   1.00000   0.00000
       z     0.00000   0.00000   1.00000
--------------------------------------------------------------------------------

  Static refractive indices : 

-------------------------------------------------------------------------------
    1 =    1.00000      2 =    1.00000      3 =    1.00000
-------------------------------------------------------------------------------


  Phonon Calculation : 

  Number of k points for this configuration =      256

--------------------------------------------------------------------------------
  K point      1 =   0.062500  0.062500  0.062500  Weight =    0.004
--------------------------------------------------------------------------------

  Frequencies (cm-1) [NB: Negative implies an imaginary mode]:

  129.32  129.32  207.37 1073.06 1073.06 1073.06 1087.14 1087.14 1087.14
 1256.28 1256.28 1256.28 1311.59 1311.59 1311.59 1329.25 1329.25 1329.25
 1393.31 1393.31 1393.31 1614.55 1614.55 1618.70


--------------------------------------------------------------------------------
  K point      2 =   0.062500  0.062500  0.187500  Weight =    0.004
--------------------------------------------------------------------------------

  Frequencies (cm-1) [NB: Negative implies an imaginary mode]:

  254.03  271.96  371.19  988.20  998.33 1065.91 1065.91 1105.84 1105.84
 1164.09 1207.40 1207.40 1288.26 1288.26 1363.91 1363.91 1369.78 1375.89
 1415.39 1415.39 1460.67 1602.24 1602.63 1614.67


--------------------------------------------------------------------------------
  K point      3 =   0.062500  0.062500  0.312500  Weight =    0.004
--------------------------------------------------------------------------------

  Frequencies (cm-1) [NB: Negative implies an imaginary mode]:

  417.67  430.04  549.52  869.24  875.37 1035.73 1067.92 1067.92 1125.87
 1125.87 1160.79 1160.79 1255.29 1255.29 1396.00 1396.00 1435.28 1435.28
 1436.08 1440.51 1515.96 1578.73 1579.01 1604.11


--------------------------------------------------------------------------------
  K point      4 =   0.062500  0.062500  0.437500  Weight =    0.004
--------------------------------------------------------------------------------

  Frequencies (cm-1) [NB: Negative implies an imaginary mode]:

  580.41  585.46  723.98  733.13  734.34  887.57 1078.86 1078.86 1120.28
 1120.28 1147.91 1147.91 1230.63 1230.63 1413.59 1413.59 1445.94 1445.94
 1494.93 1497.91 1542.78 1544.29 1557.01 1585.61


--------------------------------------------------------------------------------
  K point      5 =   0.062500  0.062500  0.562500  Weight =    0.004
--------------------------------------------------------------------------------

  Frequencies (cm-1) [NB: Negative implies an imaginary mode]:

  580.41  585.46  723.98  733.13  734.34  887.57 1078.86 1078.86 1120.28
 1120.28 1147.91 1147.91 1230.63 1230.63 1413.59 1413.59 1445.94 1445.94
 1494.93 1497.91 1542.78 1544.29 1557.01 1585.61


--------------------------------------------------------------------------------
  K point      6 =   0.062500  0.062500  0.687500  Weight =    0.004
--------------------------------------------------------------------------------

  Frequencies (cm-1) [NB: Negative implies an imaginary mode]:

  417.67  430.04  549.52  869.24  875.37 1035.73 1067.92 1067.92 1125.87
 1125.87 1160.79 1160.79 1255.29 1255.29 1396.00 1396.00 1435.28 1435.28
 1436.08 1440.51 1515.96 1578.73 1579.01 1604.11


--------------------------------------------------------------------------------
  K point      7 =   0.062500  0.062500  0.812500  Weight =    0.004
--------------------------------------------------------------------------------

  Frequencies (cm-1) [NB: Negative implies an imaginary mode]:

  254.03  271.96  371.19  988.20  998.33 1065.91 1065.91 1105.84 1105.84
 1164.09 1207.40 1207.40 1288.26 1288.26 1363.91 1363.91 1369.78 1375.89
 1415.39 1415.39 1460.67 1602.24 1602.63 1614.67


--------------------------------------------------------------------------------
  K point      8 =   0.062500  0.062500  0.937500  Weight =    0.004
--------------------------------------------------------------------------------

  Frequencies (cm-1) [NB: Negative implies an imaginary mode]:

  129.32  129.32  207.37 1073.06 1073.06 1073.06 1087.14 1087.14 1087.14
 1256.28 1256.28 1256.28 1311.59 1311.59 1311.59 1329.25 1329.25 1329.25
 1393.31 1393.31 1393.31 1614.55 1614.55 1618.70


--------------------------------------------------------------------------------
  K point      9 =   0.062500  0.187500  0.062500  Weight =    0.004
--------------------------------------------------------------------------------

  Frequencies (cm-1) [NB: Negative implies an imaginary mode]:

  254.03  271.96  371.19  988.20  998.33 1065.91 1065.91 1105.84 1105.84
 1164.09 1207.40 1207.40 1288.26 1288.26 1363.91 1363.91 1369.78 1375.89
 1415.39 1415.39 1460.67 1602.24 1602.63 1614.67


--------------------------------------------------------------------------------
  K point     10 =   0.062500  0.187500  0.187500  Weight =    0.004
--------------------------------------------------------------------------------

  Frequencies (cm-1) [NB: Negative implies an imaginary mode]:

  301.63  358.62  496.46  985.48  985.48 1015.91 1015.91 1028.57 1136.51
 1140.11 1140.11 1176.34 1318.00 1329.09 1360.57 1360.57 1400.22 1400.22
 1447.34 1457.61 1457.61 1588.40 1591.85 1611.37


--------------------------------------------------------------------------------
  K point     11 =   0.062500  0.187500  0.312500  Weight =    0.004
--------------------------------------------------------------------------------

  Frequencies (cm-1) [NB: Negative implies an imaginary mode]:

  422.17  489.32  642.86  864.35  898.02  986.02 1000.90 1039.04 1041.90
 1119.42 1124.16 1165.97 1293.22 1341.84 1365.40 1427.60 1428.67 1452.36
 1453.03 1467.90 1504.72 1564.70 1570.91 1599.50


--------------------------------------------------------------------------------
  K point     12 =   0.062500  0.187500  0.437500  Weight =    0.004
--------------------------------------------------------------------------------

  Frequencies (cm-1) [NB: Negative implies an imaginary mode]:

  570.69  629.76  722.21  767.92  787.76  922.53  985.04  987.04 1064.15
 1092.26 1123.86 1148.32 1296.86 1318.40 1399.34 1423.94 1463.98 1473.28
 1485.67 1500.68 1530.87 1540.36 1545.74 1577.67


--------------------------------------------------------------------------------
  K point     13 =   0.062500  0.187500  0.562500  Weight =    0.004
--------------------------------------------------------------------------------

  Frequencies (cm-1) [NB: Negative implies an imaginary mode]:

  570.69  629.76  722.21  767.92  787.76  922.53  985.04  987.04 1064.15
 1092.26 1123.86 1148.32 1296.86 1318.40 1399.34 1423.94 1463.98 1473.28
 1485.67 1500.68 1530.87 1540.36 1545.74 1577.67


--------------------------------------------------------------------------------
  K point     14 =   0.062500  0.187500  0.687500  Weight =    0.004
--------------------------------------------------------------------------------

  Frequencies (cm-1) [NB: Negative implies an imaginary mode]:

  422.17  489.32  642.86  864.35  898.02  986.02 1000.90 1039.04 1041.90
 1119.42 1124.16 1165.97 1293.22 1341.84 1365.40 1427.60 1428.67 1452.36
 1453.03 1467.90 1504.72 1564.70 1570.91 1599.50


--------------------------------------------------------------------------------
  K point     15 =   0.062500  0.187500  0.812500  Weight =    0.004
--------------------------------------------------------------------------------

  Frequencies (cm-1) [NB: Negative implies an imaginary mode]:

  301.63  358.62  496.46  985.48  985.48 1015.91 1015.91 1028.57 1136.51
 1140.11 1140.11 1176.34 1318.00 1329.09 1360.57 1360.57 1400.22 1400.22
 1447.34 1457.61 1457.61 1588.40 1591.85 1611.37


--------------------------------------------------------------------------------
  K point     16 =   0.062500  0.187500  0.937500  Weight =    0.004
--------------------------------------------------------------------------------

  Frequencies (cm-1) [NB: Negative implies an imaginary mode]:

  254.03  271.96  371.19  988.20  998.33 1065.91 1065.91 1105.84 1105.84
 1164.09 1207.40 1207.40 1288.26 1288.26 1363.91 1363.91 1369.78 1375.89
 1415.39 1415.39 1460.67 1602.24 1602.63 1614.67


--------------------------------------------------------------------------------
  K point     17 =   0.062500  0.312500  0.062500  Weight =    0.004
--------------------------------------------------------------------------------

  Frequencies (cm-1) [NB: Negative implies an imaginary mode]:

  417.67  430.04  549.52  869.24  875.37 1035.73 1067.92 1067.92 1125.87
 1125.87 1160.79 1160.79 1255.29 1255.29 1396.00 1396.00 1435.28 1435.28
 1436.08 1440.51 1515.96 1578.73 1579.01 1604.11


--------------------------------------------------------------------------------
  K point     18 =   0.062500  0.312500  0.187500  Weight =    0.004
--------------------------------------------------------------------------------

  Frequencies (cm-1) [NB: Negative implies an imaginary mode]:

  422.17  489.32  642.86  864.35  898.02  986.02 1000.90 1039.04 1041.90
 1119.42 1124.16 1165.97 1293.22 1341.84 1365.40 1427.60 1428.67 1452.36
 1453.03 1467.90 1504.72 1564.70 1570.91 1599.50


--------------------------------------------------------------------------------
  K point     19 =   0.062500  0.312500  0.312500  Weight =    0.004
--------------------------------------------------------------------------------

  Frequencies (cm-1) [NB: Negative implies an imaginary mode]:

  483.86  591.15  756.56  860.43  860.43  939.94  940.21  940.21 1055.91
 1055.91 1088.14 1152.97 1340.10 1365.98 1413.74 1413.74 1470.04 1470.04
 1482.68 1482.68 1488.03 1540.99 1555.21 1585.45


--------------------------------------------------------------------------------
  K point     20 =   0.062500  0.312500  0.437500  Weight =    0.004
--------------------------------------------------------------------------------

  Frequencies (cm-1) [NB: Negative implies an imaginary mode]:

  592.94  709.10  724.40  828.47  867.96  868.89  894.08  970.61  992.96
 1044.71 1079.85 1115.14 1369.13 1393.06 1405.42 1448.14 1468.30 1486.99
 1493.95 1504.41 1509.34 1522.88 1532.55 1559.66


--------------------------------------------------------------------------------
  K point     21 =   0.062500  0.312500  0.562500  Weight =    0.004
--------------------------------------------------------------------------------

  Frequencies (cm-1) [NB: Negative implies an imaginary mode]:

  592.94  709.10  724.40  828.47  867.96  868.89  894.08  970.61  992.96
 1044.71 1079.85 1115.14 1369.13 1393.06 1405.42 1448.14 1468.30 1486.99
 1493.95 1504.41 1509.34 1522.88 1532.55 1559.66


--------------------------------------------------------------------------------
  K point     22 =   0.062500  0.312500  0.687500  Weight =    0.004
--------------------------------------------------------------------------------

  Frequencies (cm-1) [NB: Negative implies an imaginary mode]:

  483.86  591.15  756.56  860.43  860.43  939.94  940.21  940.21 1055.91
 1055.91 1088.14 1152.97 1340.10 1365.98 1413.74 1413.74 1470.04 1470.04
 1482.68 1482.68 1488.03 1540.99 1555.21 1585.45


--------------------------------------------------------------------------------
  K point     23 =   0.062500  0.312500  0.812500  Weight =    0.004
--------------------------------------------------------------------------------

  Frequencies (cm-1) [NB: Negative implies an imaginary mode]:

  422.17  489.32  642.86  864.35  898.02  986.02 1000.90 1039.04 1041.90
 1119.42 1124.16 1165.97 1293.22 1341.84 1365.40 1427.60 1428.67 1452.36
 1453.03 1467.90 1504.72 1564.70 1570.91 1599.50


--------------------------------------------------------------------------------
  K point     24 =   0.062500  0.312500  0.937500  Weight =    0.004
--------------------------------------------------------------------------------

  Frequencies (cm-1) [NB: Negative implies an imaginary mode]:

  417.67  430.04  549.52  869.24  875.37 1035.73 1067.92 1067.92 1125.87
 1125.87 1160.79 1160.79 1255.29 1255.29 1396.00 1396.00 1435.28 1435.28
 1436.08 1440.51 1515.96 1578.73 1579.01 1604.11


--------------------------------------------------------------------------------
  K point     25 =   0.062500  0.437500  0.062500  Weight =    0.004
--------------------------------------------------------------------------------

  Frequencies (cm-1) [NB: Negative implies an imaginary mode]:

  580.41  585.46  723.98  733.13  734.34  887.57 1078.86 1078.86 1120.28
 1120.28 1147.91 1147.91 1230.63 1230.63 1413.59 1413.59 1445.94 1445.94
 1494.93 1497.91 1542.78 1544.29 1557.01 1585.61


--------------------------------------------------------------------------------
  K point     26 =   0.062500  0.437500  0.187500  Weight =    0.004
--------------------------------------------------------------------------------

  Frequencies (cm-1) [NB: Negative implies an imaginary mode]:

  570.69  629.76  722.21  767.92  787.76  922.53  985.04  987.04 1064.15
 1092.26 1123.86 1148.32 1296.86 1318.40 1399.34 1423.94 1463.98 1473.28
 1485.67 1500.68 1530.87 1540.36 1545.74 1577.67


--------------------------------------------------------------------------------
  K point     27 =   0.062500  0.437500  0.312500  Weight =    0.004
--------------------------------------------------------------------------------

  Frequencies (cm-1) [NB: Negative implies an imaginary mode]:

  592.94  709.10  724.40  828.47  867.96  868.89  894.08  970.61  992.96
 1044.71 1079.85 1115.14 1369.13 1393.06 1405.42 1448.14 1468.30 1486.99
 1493.95 1504.41 1509.34 1522.88 1532.55 1559.66


--------------------------------------------------------------------------------
  K point     28 =   0.062500  0.437500  0.437500  Weight =    0.004
--------------------------------------------------------------------------------

  Frequencies (cm-1) [NB: Negative implies an imaginary mode]:

  657.66  754.29  754.29  805.07  813.10  903.45  903.45  948.93  979.63
 1020.50 1020.50 1069.26 1419.24 1437.62 1445.39 1445.39 1481.04 1485.12
 1485.12 1505.18 1508.44 1508.44 1518.22 1531.88


--------------------------------------------------------------------------------
  K point     29 =   0.062500  0.437500  0.562500  Weight =    0.004
--------------------------------------------------------------------------------

  Frequencies (cm-1) [NB: Negative implies an imaginary mode]:

  657.66  754.29  754.29  805.07  813.10  903.45  903.45  948.93  979.63
 1020.50 1020.50 1069.26 1419.24 1437.62 1445.39 1445.39 1481.04 1485.12
 1485.12 1505.18 1508.44 1508.44 1518.22 1531.88


--------------------------------------------------------------------------------
  K point     30 =   0.062500  0.437500  0.687500  Weight =    0.004
--------------------------------------------------------------------------------

  Frequencies (cm-1) [NB: Negative implies an imaginary mode]:

  592.94  709.10  724.40  828.47  867.96  868.89  894.08  970.61  992.96
 1044.71 1079.85 1115.14 1369.13 1393.06 1405.42 1448.14 1468.30 1486.99
 1493.95 1504.41 1509.34 1522.88 1532.55 1559.66


--------------------------------------------------------------------------------
  K point     31 =   0.062500  0.437500  0.812500  Weight =    0.004
--------------------------------------------------------------------------------

  Frequencies (cm-1) [NB: Negative implies an imaginary mode]:

  570.69  629.76  722.21  767.92  787.76  922.53  985.04  987.04 1064.15
 1092.26 1123.86 1148.32 1296.86 1318.40 1399.34 1423.94 1463.98 1473.28
 1485.67 1500.68 1530.87 1540.36 1545.74 1577.67


--------------------------------------------------------------------------------
  K point     32 =   0.062500  0.437500  0.937500  Weight =    0.004
--------------------------------------------------------------------------------

  Frequencies (cm-1) [NB: Negative implies an imaginary mode]:

  580.41  585.46  723.98  733.13  734.34  887.57 1078.86 1078.86 1120.28
 1120.28 1147.91 1147.91 1230.63 1230.63 1413.59 1413.59 1445.94 1445.94
 1494.93 1497.91 1542.78 1544.29 1557.01 1585.61


--------------------------------------------------------------------------------
  K point     33 =   0.062500  0.562500  0.062500  Weight =    0.004
--------------------------------------------------------------------------------

  Frequencies (cm-1) [NB: Negative implies an imaginary mode]:

  580.41  585.46  723.98  733.13  734.34  887.57 1078.86 1078.86 1120.28
 1120.28 1147.91 1147.91 1230.63 1230.63 1413.59 1413.59 1445.94 1445.94
 1494.93 1497.91 1542.78 1544.29 1557.01 1585.61


--------------------------------------------------------------------------------
  K point     34 =   0.062500  0.562500  0.187500  Weight =    0.004
--------------------------------------------------------------------------------

  Frequencies (cm-1) [NB: Negative implies an imaginary mode]:

  570.69  629.76  722.21  767.92  787.76  922.53  985.04  987.04 1064.15
 1092.26 1123.86 1148.32 1296.86 1318.40 1399.34 1423.94 1463.98 1473.28
 1485.67 1500.68 1530.87 1540.36 1545.74 1577.67


--------------------------------------------------------------------------------
  K point     35 =   0.062500  0.562500  0.312500  Weight =    0.004
--------------------------------------------------------------------------------

  Frequencies (cm-1) [NB: Negative implies an imaginary mode]:

  592.94  709.10  724.40  828.47  867.96  868.89  894.08  970.61  992.96
 1044.71 1079.85 1115.14 1369.13 1393.06 1405.42 1448.14 1468.30 1486.99
 1493.95 1504.41 1509.34 1522.88 1532.55 1559.66


--------------------------------------------------------------------------------
  K point     36 =   0.062500  0.562500  0.437500  Weight =    0.004
--------------------------------------------------------------------------------

  Frequencies (cm-1) [NB: Negative implies an imaginary mode]:

  657.66  754.29  754.29  805.07  813.10  903.45  903.45  948.93  979.63
 1020.50 1020.50 1069.26 1419.24 1437.62 1445.39 1445.39 1481.04 1485.12
 1485.12 1505.18 1508.44 1508.44 1518.22 1531.88


--------------------------------------------------------------------------------
  K point     37 =   0.062500  0.562500  0.562500  Weight =    0.004
--------------------------------------------------------------------------------

  Frequencies (cm-1) [NB: Negative implies an imaginary mode]:

  657.66  754.29  754.29  805.07  813.10  903.45  903.45  948.93  979.63
 1020.50 1020.50 1069.26 1419.24 1437.62 1445.39 1445.39 1481.04 1485.12
 1485.12 1505.18 1508.44 1508.44 1518.22 1531.88


--------------------------------------------------------------------------------
  K point     38 =   0.062500  0.562500  0.687500  Weight =    0.004
--------------------------------------------------------------------------------

  Frequencies (cm-1) [NB: Negative implies an imaginary mode]:

  592.94  709.10  724.40  828.47  867.96  868.89  894.08  970.61  992.96
 1044.71 1079.85 1115.14 1369.13 1393.06 1405.42 1448.14 1468.30 1486.99
 1493.95 1504.41 1509.34 1522.88 1532.55 1559.66


--------------------------------------------------------------------------------
  K point     39 =   0.062500  0.562500  0.812500  Weight =    0.004
--------------------------------------------------------------------------------

  Frequencies (cm-1) [NB: Negative implies an imaginary mode]:

  570.69  629.76  722.21  767.92  787.76  922.53  985.04  987.04 1064.15
 1092.26 1123.86 1148.32 1296.86 1318.40 1399.34 1423.94 1463.98 1473.28
 1485.67 1500.68 1530.87 1540.36 1545.74 1577.67


--------------------------------------------------------------------------------
  K point     40 =   0.062500  0.562500  0.937500  Weight =    0.004
--------------------------------------------------------------------------------

  Frequencies (cm-1) [NB: Negative implies an imaginary mode]:

  580.41  585.46  723.98  733.13  734.34  887.57 1078.86 1078.86 1120.28
 1120.28 1147.91 1147.91 1230.63 1230.63 1413.59 1413.59 1445.94 1445.94
 1494.93 1497.91 1542.78 1544.29 1557.01 1585.61


--------------------------------------------------------------------------------
  K point     41 =   0.062500  0.687500  0.062500  Weight =    0.004
--------------------------------------------------------------------------------

  Frequencies (cm-1) [NB: Negative implies an imaginary mode]:

  417.67  430.04  549.52  869.24  875.37 1035.73 1067.92 1067.92 1125.87
 1125.87 1160.79 1160.79 1255.29 1255.29 1396.00 1396.00 1435.28 1435.28
 1436.08 1440.51 1515.96 1578.73 1579.01 1604.11


--------------------------------------------------------------------------------
  K point     42 =   0.062500  0.687500  0.187500  Weight =    0.004
--------------------------------------------------------------------------------

  Frequencies (cm-1) [NB: Negative implies an imaginary mode]:

  422.17  489.32  642.86  864.35  898.02  986.02 1000.90 1039.04 1041.90
 1119.42 1124.16 1165.97 1293.22 1341.84 1365.40 1427.60 1428.67 1452.36
 1453.03 1467.90 1504.72 1564.70 1570.91 1599.50


--------------------------------------------------------------------------------
  K point     43 =   0.062500  0.687500  0.312500  Weight =    0.004
--------------------------------------------------------------------------------

  Frequencies (cm-1) [NB: Negative implies an imaginary mode]:

  483.86  591.15  756.56  860.43  860.43  939.94  940.21  940.21 1055.91
 1055.91 1088.14 1152.97 1340.10 1365.98 1413.74 1413.74 1470.04 1470.04
 1482.68 1482.68 1488.03 1540.99 1555.21 1585.45


--------------------------------------------------------------------------------
  K point     44 =   0.062500  0.687500  0.437500  Weight =    0.004
--------------------------------------------------------------------------------

  Frequencies (cm-1) [NB: Negative implies an imaginary mode]:

  592.94  709.10  724.40  828.47  867.96  868.89  894.08  970.61  992.96
 1044.71 1079.85 1115.14 1369.13 1393.06 1405.42 1448.14 1468.30 1486.99
 1493.95 1504.41 1509.34 1522.88 1532.55 1559.66


--------------------------------------------------------------------------------
  K point     45 =   0.062500  0.687500  0.562500  Weight =    0.004
--------------------------------------------------------------------------------

  Frequencies (cm-1) [NB: Negative implies an imaginary mode]:

  592.94  709.10  724.40  828.47  867.96  868.89  894.08  970.61  992.96
 1044.71 1079.85 1115.14 1369.13 1393.06 1405.42 1448.14 1468.30 1486.99
 1493.95 1504.41 1509.34 1522.88 1532.55 1559.66


--------------------------------------------------------------------------------
  K point     46 =   0.062500  0.687500  0.687500  Weight =    0.004
--------------------------------------------------------------------------------

  Frequencies (cm-1) [NB: Negative implies an imaginary mode]:

  483.86  591.15  756.56  860.43  860.43  939.94  940.21  940.21 1055.91
 1055.91 1088.14 1152.97 1340.10 1365.98 1413.74 1413.74 1470.04 1470.04
 1482.68 1482.68 1488.03 1540.99 1555.21 1585.45


--------------------------------------------------------------------------------
  K point     47 =   0.062500  0.687500  0.812500  Weight =    0.004
--------------------------------------------------------------------------------

  Frequencies (cm-1) [NB: Negative implies an imaginary mode]:

  422.17  489.32  642.86  864.35  898.02  986.02 1000.90 1039.04 1041.90
 1119.42 1124.16 1165.97 1293.22 1341.84 1365.40 1427.60 1428.67 1452.36
 1453.03 1467.90 1504.72 1564.70 1570.91 1599.50


--------------------------------------------------------------------------------
  K point     48 =   0.062500  0.687500  0.937500  Weight =    0.004
--------------------------------------------------------------------------------

  Frequencies (cm-1) [NB: Negative implies an imaginary mode]:

  417.67  430.04  549.52  869.24  875.37 1035.73 1067.92 1067.92 1125.87
 1125.87 1160.79 1160.79 1255.29 1255.29 1396.00 1396.00 1435.28 1435.28
 1436.08 1440.51 1515.96 1578.73 1579.01 1604.11


--------------------------------------------------------------------------------
  K point     49 =   0.062500  0.812500  0.062500  Weight =    0.004
--------------------------------------------------------------------------------

  Frequencies (cm-1) [NB: Negative implies an imaginary mode]:

  254.03  271.96  371.19  988.20  998.33 1065.91 1065.91 1105.84 1105.84
 1164.09 1207.40 1207.40 1288.26 1288.26 1363.91 1363.91 1369.78 1375.89
 1415.39 1415.39 1460.67 1602.24 1602.63 1614.67


--------------------------------------------------------------------------------
  K point     50 =   0.062500  0.812500  0.187500  Weight =    0.004
--------------------------------------------------------------------------------

  Frequencies (cm-1) [NB: Negative implies an imaginary mode]:

  301.63  358.62  496.46  985.48  985.48 1015.91 1015.91 1028.57 1136.51
 1140.11 1140.11 1176.34 1318.00 1329.09 1360.57 1360.57 1400.22 1400.22
 1447.34 1457.61 1457.61 1588.40 1591.85 1611.37


--------------------------------------------------------------------------------
  K point     51 =   0.062500  0.812500  0.312500  Weight =    0.004
--------------------------------------------------------------------------------

  Frequencies (cm-1) [NB: Negative implies an imaginary mode]:

  422.17  489.32  642.86  864.35  898.02  986.02 1000.90 1039.04 1041.90
 1119.42 1124.16 1165.97 1293.22 1341.84 1365.40 1427.60 1428.67 1452.36
 1453.03 1467.90 1504.72 1564.70 1570.91 1599.50


--------------------------------------------------------------------------------
  K point     52 =   0.062500  0.812500  0.437500  Weight =    0.004
--------------------------------------------------------------------------------

  Frequencies (cm-1) [NB: Negative implies an imaginary mode]:

  570.69  629.76  722.21  767.92  787.76  922.53  985.04  987.04 1064.15
 1092.26 1123.86 1148.32 1296.86 1318.40 1399.34 1423.94 1463.98 1473.28
 1485.67 1500.68 1530.87 1540.36 1545.74 1577.67


--------------------------------------------------------------------------------
  K point     53 =   0.062500  0.812500  0.562500  Weight =    0.004
--------------------------------------------------------------------------------

  Frequencies (cm-1) [NB: Negative implies an imaginary mode]:

  570.69  629.76  722.21  767.92  787.76  922.53  985.04  987.04 1064.15
 1092.26 1123.86 1148.32 1296.86 1318.40 1399.34 1423.94 1463.98 1473.28
 1485.67 1500.68 1530.87 1540.36 1545.74 1577.67


--------------------------------------------------------------------------------
  K point     54 =   0.062500  0.812500  0.687500  Weight =    0.004
--------------------------------------------------------------------------------

  Frequencies (cm-1) [NB: Negative implies an imaginary mode]:

  422.17  489.32  642.86  864.35  898.02  986.02 1000.90 1039.04 1041.90
 1119.42 1124.16 1165.97 1293.22 1341.84 1365.40 1427.60 1428.67 1452.36
 1453.03 1467.90 1504.72 1564.70 1570.91 1599.50


--------------------------------------------------------------------------------
  K point     55 =   0.062500  0.812500  0.812500  Weight =    0.004
--------------------------------------------------------------------------------

  Frequencies (cm-1) [NB: Negative implies an imaginary mode]:

  301.63  358.62  496.46  985.48  985.48 1015.91 1015.91 1028.57 1136.51
 1140.11 1140.11 1176.34 1318.00 1329.09 1360.57 1360.57 1400.22 1400.22
 1447.34 1457.61 1457.61 1588.40 1591.85 1611.37


--------------------------------------------------------------------------------
  K point     56 =   0.062500  0.812500  0.937500  Weight =    0.004
--------------------------------------------------------------------------------

  Frequencies (cm-1) [NB: Negative implies an imaginary mode]:

  254.03  271.96  371.19  988.20  998.33 1065.91 1065.91 1105.84 1105.84
 1164.09 1207.40 1207.40 1288.26 1288.26 1363.91 1363.91 1369.78 1375.89
 1415.39 1415.39 1460.67 1602.24 1602.63 1614.67


--------------------------------------------------------------------------------
  K point     57 =   0.062500  0.937500  0.062500  Weight =    0.004
--------------------------------------------------------------------------------

  Frequencies (cm-1) [NB: Negative implies an imaginary mode]:

  129.32  129.32  207.37 1073.06 1073.06 1073.06 1087.14 1087.14 1087.14
 1256.28 1256.28 1256.28 1311.59 1311.59 1311.59 1329.25 1329.25 1329.25
 1393.31 1393.31 1393.31 1614.55 1614.55 1618.70


--------------------------------------------------------------------------------
  K point     58 =   0.062500  0.937500  0.187500  Weight =    0.004
--------------------------------------------------------------------------------

  Frequencies (cm-1) [NB: Negative implies an imaginary mode]:

  254.03  271.96  371.19  988.20  998.33 1065.91 1065.91 1105.84 1105.84
 1164.09 1207.40 1207.40 1288.26 1288.26 1363.91 1363.91 1369.78 1375.89
 1415.39 1415.39 1460.67 1602.24 1602.63 1614.67


--------------------------------------------------------------------------------
  K point     59 =   0.062500  0.937500  0.312500  Weight =    0.004
--------------------------------------------------------------------------------

  Frequencies (cm-1) [NB: Negative implies an imaginary mode]:

  417.67  430.04  549.52  869.24  875.37 1035.73 1067.92 1067.92 1125.87
 1125.87 1160.79 1160.79 1255.29 1255.29 1396.00 1396.00 1435.28 1435.28
 1436.08 1440.51 1515.96 1578.73 1579.01 1604.11


--------------------------------------------------------------------------------
  K point     60 =   0.062500  0.937500  0.437500  Weight =    0.004
--------------------------------------------------------------------------------

  Frequencies (cm-1) [NB: Negative implies an imaginary mode]:

  580.41  585.46  723.98  733.13  734.34  887.57 1078.86 1078.86 1120.28
 1120.28 1147.91 1147.91 1230.63 1230.63 1413.59 1413.59 1445.94 1445.94
 1494.93 1497.91 1542.78 1544.29 1557.01 1585.61


--------------------------------------------------------------------------------
  K point     61 =   0.062500  0.937500  0.562500  Weight =    0.004
--------------------------------------------------------------------------------

  Frequencies (cm-1) [NB: Negative implies an imaginary mode]:

  580.41  585.46  723.98  733.13  734.34  887.57 1078.86 1078.86 1120.28
 1120.28 1147.91 1147.91 1230.63 1230.63 1413.59 1413.59 1445.94 1445.94
 1494.93 1497.91 1542.78 1544.29 1557.01 1585.61


--------------------------------------------------------------------------------
  K point     62 =   0.062500  0.937500  0.687500  Weight =    0.004
--------------------------------------------------------------------------------

  Frequencies (cm-1) [NB: Negative implies an imaginary mode]:

  417.67  430.04  549.52  869.24  875.37 1035.73 1067.92 1067.92 1125.87
 1125.87 1160.79 1160.79 1255.29 1255.29 1396.00 1396.00 1435.28 1435.28
 1436.08 1440.51 1515.96 1578.73 1579.01 1604.11


--------------------------------------------------------------------------------
  K point     63 =   0.062500  0.937500  0.812500  Weight =    0.004
--------------------------------------------------------------------------------

  Frequencies (cm-1) [NB: Negative implies an imaginary mode]:

  254.03  271.96  371.19  988.20  998.33 1065.91 1065.91 1105.84 1105.84
 1164.09 1207.40 1207.40 1288.26 1288.26 1363.91 1363.91 1369.78 1375.89
 1415.39 1415.39 1460.67 1602.24 1602.63 1614.67


--------------------------------------------------------------------------------
  K point     64 =   0.062500  0.937500  0.937500  Weight =    0.004
--------------------------------------------------------------------------------

  Frequencies (cm-1) [NB: Negative implies an imaginary mode]:

  129.32  129.32  207.37 1073.06 1073.06 1073.06 1087.14 1087.14 1087.14
 1256.28 1256.28 1256.28 1311.59 1311.59 1311.59 1329.25 1329.25 1329.25
 1393.31 1393.31 1393.31 1614.55 1614.55 1618.70


--------------------------------------------------------------------------------
  K point     65 =   0.187500  0.062500  0.062500  Weight =    0.004
--------------------------------------------------------------------------------

  Frequencies (cm-1) [NB: Negative implies an imaginary mode]:

  254.03  271.96  371.19  988.20  998.33 1065.91 1065.91 1105.84 1105.84
 1164.09 1207.40 1207.40 1288.26 1288.26 1363.91 1363.91 1369.78 1375.89
 1415.39 1415.39 1460.67 1602.24 1602.63 1614.67


--------------------------------------------------------------------------------
  K point     66 =   0.187500  0.062500  0.187500  Weight =    0.004
--------------------------------------------------------------------------------

  Frequencies (cm-1) [NB: Negative implies an imaginary mode]:

  301.63  358.62  496.46  985.48  985.48 1015.91 1015.91 1028.57 1136.51
 1140.11 1140.11 1176.34 1318.00 1329.09 1360.57 1360.57 1400.22 1400.22
 1447.34 1457.61 1457.61 1588.40 1591.85 1611.37


--------------------------------------------------------------------------------
  K point     67 =   0.187500  0.062500  0.312500  Weight =    0.004
--------------------------------------------------------------------------------

  Frequencies (cm-1) [NB: Negative implies an imaginary mode]:

  422.17  489.32  642.86  864.35  898.02  986.02 1000.90 1039.04 1041.90
 1119.42 1124.16 1165.97 1293.22 1341.84 1365.40 1427.60 1428.67 1452.36
 1453.03 1467.90 1504.72 1564.70 1570.91 1599.50


--------------------------------------------------------------------------------
  K point     68 =   0.187500  0.062500  0.437500  Weight =    0.004
--------------------------------------------------------------------------------

  Frequencies (cm-1) [NB: Negative implies an imaginary mode]:

  570.69  629.76  722.21  767.92  787.76  922.53  985.04  987.04 1064.15
 1092.26 1123.86 1148.32 1296.86 1318.40 1399.34 1423.94 1463.98 1473.28
 1485.67 1500.68 1530.87 1540.36 1545.74 1577.67


--------------------------------------------------------------------------------
  K point     69 =   0.187500  0.062500  0.562500  Weight =    0.004
--------------------------------------------------------------------------------

  Frequencies (cm-1) [NB: Negative implies an imaginary mode]:

  570.69  629.76  722.21  767.92  787.76  922.53  985.04  987.04 1064.15
 1092.26 1123.86 1148.32 1296.86 1318.40 1399.34 1423.94 1463.98 1473.28
 1485.67 1500.68 1530.87 1540.36 1545.74 1577.67


--------------------------------------------------------------------------------
  K point     70 =   0.187500  0.062500  0.687500  Weight =    0.004
--------------------------------------------------------------------------------

  Frequencies (cm-1) [NB: Negative implies an imaginary mode]:

  422.17  489.32  642.86  864.35  898.02  986.02 1000.90 1039.04 1041.90
 1119.42 1124.16 1165.97 1293.22 1341.84 1365.40 1427.60 1428.67 1452.36
 1453.03 1467.90 1504.72 1564.70 1570.91 1599.50


--------------------------------------------------------------------------------
  K point     71 =   0.187500  0.062500  0.812500  Weight =    0.004
--------------------------------------------------------------------------------

  Frequencies (cm-1) [NB: Negative implies an imaginary mode]:

  301.63  358.62  496.46  985.48  985.48 1015.91 1015.91 1028.57 1136.51
 1140.11 1140.11 1176.34 1318.00 1329.09 1360.57 1360.57 1400.22 1400.22
 1447.34 1457.61 1457.61 1588.40 1591.85 1611.37


--------------------------------------------------------------------------------
  K point     72 =   0.187500  0.062500  0.937500  Weight =    0.004
--------------------------------------------------------------------------------

  Frequencies (cm-1) [NB: Negative implies an imaginary mode]:

  254.03  271.96  371.19  988.20  998.33 1065.91 1065.91 1105.84 1105.84
 1164.09 1207.40 1207.40 1288.26 1288.26 1363.91 1363.91 1369.78 1375.89
 1415.39 1415.39 1460.67 1602.24 1602.63 1614.67


--------------------------------------------------------------------------------
  K point     73 =   0.187500  0.187500  0.062500  Weight =    0.004
--------------------------------------------------------------------------------

  Frequencies (cm-1) [NB: Negative implies an imaginary mode]:

  301.63  358.62  496.46  985.48  985.48 1015.91 1015.91 1028.57 1136.51
 1140.11 1140.11 1176.34 1318.00 1329.09 1360.57 1360.57 1400.22 1400.22
 1447.34 1457.61 1457.61 1588.40 1591.85 1611.37


--------------------------------------------------------------------------------
  K point     74 =   0.187500  0.187500  0.187500  Weight =    0.004
--------------------------------------------------------------------------------

  Frequencies (cm-1) [NB: Negative implies an imaginary mode]:

  376.97  376.97  601.68  962.38  962.38  962.38 1028.42 1028.42 1028.42
 1136.75 1136.75 1136.75 1371.95 1371.95 1371.95 1390.64 1390.64 1390.64
 1465.39 1465.39 1465.39 1577.31 1577.31 1609.29


--------------------------------------------------------------------------------
  K point     75 =   0.187500  0.187500  0.312500  Weight =    0.004
--------------------------------------------------------------------------------

  Frequencies (cm-1) [NB: Negative implies an imaginary mode]:

  466.32  490.98  730.09  861.53  892.84  945.86  945.86 1021.56 1021.56
 1065.56 1144.54 1144.54 1360.67 1360.67 1404.93 1404.93 1427.09 1455.15
 1471.75 1471.75 1496.72 1555.17 1555.56 1597.65


--------------------------------------------------------------------------------
  K point     76 =   0.187500  0.187500  0.437500  Weight =    0.004
--------------------------------------------------------------------------------

  Frequencies (cm-1) [NB: Negative implies an imaginary mode]:

  598.80  617.51  743.68  746.22  856.42  938.53  938.53  970.30 1009.47
 1009.47 1155.49 1155.49 1348.03 1348.03 1419.38 1419.38 1473.99 1473.99
 1478.88 1497.98 1522.16 1529.18 1537.47 1573.66


--------------------------------------------------------------------------------
  K point     77 =   0.187500  0.187500  0.562500  Weight =    0.004
--------------------------------------------------------------------------------

  Frequencies (cm-1) [NB: Negative implies an imaginary mode]:

  598.80  617.51  743.68  746.22  856.42  938.53  938.53  970.30 1009.47
 1009.47 1155.49 1155.49 1348.03 1348.03 1419.38 1419.38 1473.99 1473.99
 1478.88 1497.98 1522.16 1529.18 1537.47 1573.66


--------------------------------------------------------------------------------
  K point     78 =   0.187500  0.187500  0.687500  Weight =    0.004
--------------------------------------------------------------------------------

  Frequencies (cm-1) [NB: Negative implies an imaginary mode]:

  466.32  490.98  730.09  861.53  892.84  945.86  945.86 1021.56 1021.56
 1065.56 1144.54 1144.54 1360.67 1360.67 1404.93 1404.93 1427.09 1455.15
 1471.75 1471.75 1496.72 1555.17 1555.56 1597.65


--------------------------------------------------------------------------------
  K point     79 =   0.187500  0.187500  0.812500  Weight =    0.004
--------------------------------------------------------------------------------

  Frequencies (cm-1) [NB: Negative implies an imaginary mode]:

  376.97  376.97  601.68  962.38  962.38  962.38 1028.42 1028.42 1028.42
 1136.75 1136.75 1136.75 1371.95 1371.95 1371.95 1390.64 1390.64 1390.64
 1465.39 1465.39 1465.39 1577.31 1577.31 1609.29


--------------------------------------------------------------------------------
  K point     80 =   0.187500  0.187500  0.937500  Weight =    0.004
--------------------------------------------------------------------------------

  Frequencies (cm-1) [NB: Negative implies an imaginary mode]:

  301.63  358.62  496.46  985.48  985.48 1015.91 1015.91 1028.57 1136.51
 1140.11 1140.11 1176.34 1318.00 1329.09 1360.57 1360.57 1400.22 1400.22
 1447.34 1457.61 1457.61 1588.40 1591.85 1611.37


--------------------------------------------------------------------------------
  K point     81 =   0.187500  0.312500  0.062500  Weight =    0.004
--------------------------------------------------------------------------------

  Frequencies (cm-1) [NB: Negative implies an imaginary mode]:

  422.17  489.32  642.86  864.35  898.02  986.02 1000.90 1039.04 1041.90
 1119.42 1124.16 1165.97 1293.22 1341.84 1365.40 1427.60 1428.67 1452.36
 1453.03 1467.90 1504.72 1564.70 1570.91 1599.50


--------------------------------------------------------------------------------
  K point     82 =   0.187500  0.312500  0.187500  Weight =    0.004
--------------------------------------------------------------------------------

  Frequencies (cm-1) [NB: Negative implies an imaginary mode]:

  466.32  490.98  730.09  861.53  892.84  945.86  945.86 1021.56 1021.56
 1065.56 1144.54 1144.54 1360.67 1360.67 1404.93 1404.93 1427.09 1455.15
 1471.75 1471.75 1496.72 1555.17 1555.56 1597.65


--------------------------------------------------------------------------------
  K point     83 =   0.187500  0.312500  0.312500  Weight =    0.004
--------------------------------------------------------------------------------

  Frequencies (cm-1) [NB: Negative implies an imaginary mode]:

  521.66  569.16  837.72  852.57  852.57  901.37  902.40  902.40  990.46
 1099.45 1099.45 1162.09 1387.88 1393.73 1417.93 1417.93 1462.55 1462.55
 1482.47 1482.47 1482.77 1532.11 1537.55 1585.98


--------------------------------------------------------------------------------
  K point     84 =   0.187500  0.312500  0.437500  Weight =    0.004
--------------------------------------------------------------------------------

  Frequencies (cm-1) [NB: Negative implies an imaginary mode]:

  616.55  674.14  735.24  786.29  851.71  867.89  925.04  941.57  955.94
 1030.85 1133.05 1157.25 1391.69 1403.83 1423.51 1452.09 1464.69 1479.89
 1484.85 1493.66 1502.63 1515.02 1521.08 1560.78


--------------------------------------------------------------------------------
  K point     85 =   0.187500  0.312500  0.562500  Weight =    0.004
--------------------------------------------------------------------------------

  Frequencies (cm-1) [NB: Negative implies an imaginary mode]:

  616.55  674.14  735.24  786.29  851.71  867.89  925.04  941.57  955.94
 1030.85 1133.05 1157.25 1391.69 1403.83 1423.51 1452.09 1464.69 1479.89
 1484.85 1493.66 1502.63 1515.02 1521.08 1560.78


--------------------------------------------------------------------------------
  K point     86 =   0.187500  0.312500  0.687500  Weight =    0.004
--------------------------------------------------------------------------------

  Frequencies (cm-1) [NB: Negative implies an imaginary mode]:

  521.66  569.16  837.72  852.57  852.57  901.37  902.40  902.40  990.46
 1099.45 1099.45 1162.09 1387.88 1393.73 1417.93 1417.93 1462.55 1462.55
 1482.47 1482.47 1482.77 1532.11 1537.55 1585.98


--------------------------------------------------------------------------------
  K point     87 =   0.187500  0.312500  0.812500  Weight =    0.004
--------------------------------------------------------------------------------

  Frequencies (cm-1) [NB: Negative implies an imaginary mode]:

  466.32  490.98  730.09  861.53  892.84  945.86  945.86 1021.56 1021.56
 1065.56 1144.54 1144.54 1360.67 1360.67 1404.93 1404.93 1427.09 1455.15
 1471.75 1471.75 1496.72 1555.17 1555.56 1597.65


--------------------------------------------------------------------------------
  K point     88 =   0.187500  0.312500  0.937500  Weight =    0.004
--------------------------------------------------------------------------------

  Frequencies (cm-1) [NB: Negative implies an imaginary mode]:

  422.17  489.32  642.86  864.35  898.02  986.02 1000.90 1039.04 1041.90
 1119.42 1124.16 1165.97 1293.22 1341.84 1365.40 1427.60 1428.67 1452.36
 1453.03 1467.90 1504.72 1564.70 1570.91 1599.50


--------------------------------------------------------------------------------
  K point     89 =   0.187500  0.437500  0.062500  Weight =    0.004
--------------------------------------------------------------------------------

  Frequencies (cm-1) [NB: Negative implies an imaginary mode]:

  570.69  629.76  722.21  767.92  787.76  922.53  985.04  987.04 1064.15
 1092.26 1123.86 1148.32 1296.86 1318.40 1399.34 1423.94 1463.98 1473.28
 1485.67 1500.68 1530.87 1540.36 1545.74 1577.67


--------------------------------------------------------------------------------
  K point     90 =   0.187500  0.437500  0.187500  Weight =    0.004
--------------------------------------------------------------------------------

  Frequencies (cm-1) [NB: Negative implies an imaginary mode]:

  598.80  617.51  743.68  746.22  856.42  938.53  938.53  970.30 1009.47
 1009.47 1155.49 1155.49 1348.03 1348.03 1419.38 1419.38 1473.99 1473.99
 1478.88 1497.98 1522.16 1529.18 1537.47 1573.66


--------------------------------------------------------------------------------
  K point     91 =   0.187500  0.437500  0.312500  Weight =    0.004
--------------------------------------------------------------------------------

  Frequencies (cm-1) [NB: Negative implies an imaginary mode]:

  616.55  674.14  735.24  786.29  851.71  867.89  925.04  941.57  955.94
 1030.85 1133.05 1157.25 1391.69 1403.83 1423.51 1452.09 1464.69 1479.89
 1484.85 1493.66 1502.63 1515.02 1521.08 1560.78


--------------------------------------------------------------------------------
  K point     92 =   0.187500  0.437500  0.437500  Weight =    0.004
--------------------------------------------------------------------------------

  Frequencies (cm-1) [NB: Negative implies an imaginary mode]:

  669.50  753.79  753.87  753.87  801.01  839.78  839.78  898.40 1021.94
 1087.61 1087.61 1132.16 1424.78 1445.78 1445.78 1448.24 1477.00 1480.07
 1480.07 1493.68 1498.30 1503.14 1503.14 1536.45


--------------------------------------------------------------------------------
  K point     93 =   0.187500  0.437500  0.562500  Weight =    0.004
--------------------------------------------------------------------------------

  Frequencies (cm-1) [NB: Negative implies an imaginary mode]:

  669.50  753.79  753.87  753.87  801.01  839.78  839.78  898.40 1021.94
 1087.61 1087.61 1132.16 1424.78 1445.78 1445.78 1448.24 1477.00 1480.07
 1480.07 1493.68 1498.30 1503.14 1503.14 1536.45


--------------------------------------------------------------------------------
  K point     94 =   0.187500  0.437500  0.687500  Weight =    0.004
--------------------------------------------------------------------------------

  Frequencies (cm-1) [NB: Negative implies an imaginary mode]:

  616.55  674.14  735.24  786.29  851.71  867.89  925.04  941.57  955.94
 1030.85 1133.05 1157.25 1391.69 1403.83 1423.51 1452.09 1464.69 1479.89
 1484.85 1493.66 1502.63 1515.02 1521.08 1560.78


--------------------------------------------------------------------------------
  K point     95 =   0.187500  0.437500  0.812500  Weight =    0.004
--------------------------------------------------------------------------------

  Frequencies (cm-1) [NB: Negative implies an imaginary mode]:

  598.80  617.51  743.68  746.22  856.42  938.53  938.53  970.30 1009.47
 1009.47 1155.49 1155.49 1348.03 1348.03 1419.38 1419.38 1473.99 1473.99
 1478.88 1497.98 1522.16 1529.18 1537.47 1573.66


--------------------------------------------------------------------------------
  K point     96 =   0.187500  0.437500  0.937500  Weight =    0.004
--------------------------------------------------------------------------------

  Frequencies (cm-1) [NB: Negative implies an imaginary mode]:

  570.69  629.76  722.21  767.92  787.76  922.53  985.04  987.04 1064.15
 1092.26 1123.86 1148.32 1296.86 1318.40 1399.34 1423.94 1463.98 1473.28
 1485.67 1500.68 1530.87 1540.36 1545.74 1577.67


--------------------------------------------------------------------------------
  K point     97 =   0.187500  0.562500  0.062500  Weight =    0.004
--------------------------------------------------------------------------------

  Frequencies (cm-1) [NB: Negative implies an imaginary mode]:

  570.69  629.76  722.21  767.92  787.76  922.53  985.04  987.04 1064.15
 1092.26 1123.86 1148.32 1296.86 1318.40 1399.34 1423.94 1463.98 1473.28
 1485.67 1500.68 1530.87 1540.36 1545.74 1577.67


--------------------------------------------------------------------------------
  K point     98 =   0.187500  0.562500  0.187500  Weight =    0.004
--------------------------------------------------------------------------------

  Frequencies (cm-1) [NB: Negative implies an imaginary mode]:

  598.80  617.51  743.68  746.22  856.42  938.53  938.53  970.30 1009.47
 1009.47 1155.49 1155.49 1348.03 1348.03 1419.38 1419.38 1473.99 1473.99
 1478.88 1497.98 1522.16 1529.18 1537.47 1573.66


--------------------------------------------------------------------------------
  K point     99 =   0.187500  0.562500  0.312500  Weight =    0.004
--------------------------------------------------------------------------------

  Frequencies (cm-1) [NB: Negative implies an imaginary mode]:

  616.55  674.14  735.24  786.29  851.71  867.89  925.04  941.57  955.94
 1030.85 1133.05 1157.25 1391.69 1403.83 1423.51 1452.09 1464.69 1479.89
 1484.85 1493.66 1502.63 1515.02 1521.08 1560.78


--------------------------------------------------------------------------------
  K point    100 =   0.187500  0.562500  0.437500  Weight =    0.004
--------------------------------------------------------------------------------

  Frequencies (cm-1) [NB: Negative implies an imaginary mode]:

  669.50  753.79  753.87  753.87  801.01  839.78  839.78  898.40 1021.94
 1087.61 1087.61 1132.16 1424.78 1445.78 1445.78 1448.24 1477.00 1480.07
 1480.07 1493.68 1498.30 1503.14 1503.14 1536.45


--------------------------------------------------------------------------------
  K point    101 =   0.187500  0.562500  0.562500  Weight =    0.004
--------------------------------------------------------------------------------

  Frequencies (cm-1) [NB: Negative implies an imaginary mode]:

  669.50  753.79  753.87  753.87  801.01  839.78  839.78  898.40 1021.94
 1087.61 1087.61 1132.16 1424.78 1445.78 1445.78 1448.24 1477.00 1480.07
 1480.07 1493.68 1498.30 1503.14 1503.14 1536.45


--------------------------------------------------------------------------------
  K point    102 =   0.187500  0.562500  0.687500  Weight =    0.004
--------------------------------------------------------------------------------

  Frequencies (cm-1) [NB: Negative implies an imaginary mode]:

  616.55  674.14  735.24  786.29  851.71  867.89  925.04  941.57  955.94
 1030.85 1133.05 1157.25 1391.69 1403.83 1423.51 1452.09 1464.69 1479.89
 1484.85 1493.66 1502.63 1515.02 1521.08 1560.78


--------------------------------------------------------------------------------
  K point    103 =   0.187500  0.562500  0.812500  Weight =    0.004
--------------------------------------------------------------------------------

  Frequencies (cm-1) [NB: Negative implies an imaginary mode]:

  598.80  617.51  743.68  746.22  856.42  938.53  938.53  970.30 1009.47
 1009.47 1155.49 1155.49 1348.03 1348.03 1419.38 1419.38 1473.99 1473.99
 1478.88 1497.98 1522.16 1529.18 1537.47 1573.66


--------------------------------------------------------------------------------
  K point    104 =   0.187500  0.562500  0.937500  Weight =    0.004
--------------------------------------------------------------------------------

  Frequencies (cm-1) [NB: Negative implies an imaginary mode]:

  570.69  629.76  722.21  767.92  787.76  922.53  985.04  987.04 1064.15
 1092.26 1123.86 1148.32 1296.86 1318.40 1399.34 1423.94 1463.98 1473.28
 1485.67 1500.68 1530.87 1540.36 1545.74 1577.67


--------------------------------------------------------------------------------
  K point    105 =   0.187500  0.687500  0.062500  Weight =    0.004
--------------------------------------------------------------------------------

  Frequencies (cm-1) [NB: Negative implies an imaginary mode]:

  422.17  489.32  642.86  864.35  898.02  986.02 1000.90 1039.04 1041.90
 1119.42 1124.16 1165.97 1293.22 1341.84 1365.40 1427.60 1428.67 1452.36
 1453.03 1467.90 1504.72 1564.70 1570.91 1599.50


--------------------------------------------------------------------------------
  K point    106 =   0.187500  0.687500  0.187500  Weight =    0.004
--------------------------------------------------------------------------------

  Frequencies (cm-1) [NB: Negative implies an imaginary mode]:

  466.32  490.98  730.09  861.53  892.84  945.86  945.86 1021.56 1021.56
[...]
  Zero point energy            =        1.754214 eV
  Entropy                      =        0.000002 eV/K
                               =        0.182250 J/(mol.K)
  Helmholtz free-energy        =      -57.180265 eV
                               =    -5517.021036 kJmol-1
  Free energy (equipartition)  =      -58.437345 eV
  - T*S       (equipartition)  =        0.331648 eV
  Uvib        (equipartition)  =        0.165453 eV
  Mean kinetic energy          =        0.877165 eV
  Heat capacity - const volume =        0.000006 eV/K
                               =        0.585801 J/(mol.K)
--------------------------------------------------------------------------------
  Phonon properties (per mole of unit cells): Temperature =     90.000 K
--------------------------------------------------------------------------------
  Zero point energy            =        1.754214 eV
  Entropy                      =        0.000003 eV/K
                               =        0.265756 J/(mol.K)
  Helmholtz free-energy        =      -57.180288 eV
                               =    -5517.023259 kJmol-1
  Free energy (equipartition)  =      -58.397130 eV
  - T*S       (equipartition)  =        0.351180 eV
  Uvib        (equipartition)  =        0.186134 eV
  Mean kinetic energy          =        0.877202 eV
  Heat capacity - const volume =        0.000009 eV/K
                               =        0.849055 J/(mol.K)
--------------------------------------------------------------------------------
  Phonon properties (per mole of unit cells): Temperature =    100.000 K
--------------------------------------------------------------------------------
  Zero point energy            =        1.754214 eV
  Entropy                      =        0.000004 eV/K
                               =        0.372086 J/(mol.K)
  Helmholtz free-energy        =      -57.180321 eV
                               =    -5517.026428 kJmol-1
  Free energy (equipartition)  =      -58.359219 eV
  - T*S       (equipartition)  =        0.368410 eV
  Uvib        (equipartition)  =        0.206816 eV
  Mean kinetic energy          =        0.877255 eV
  Heat capacity - const volume =        0.000012 eV/K
                               =        1.189233 J/(mol.K)
--------------------------------------------------------------------------------
  Phonon properties (per mole of unit cells): Temperature =    110.000 K
--------------------------------------------------------------------------------
  Zero point energy            =        1.754214 eV
  Entropy                      =        0.000005 eV/K
                               =        0.504849 J/(mol.K)
  Helmholtz free-energy        =      -57.180366 eV
                               =    -5517.030789 kJmol-1
  Free energy (equipartition)  =      -58.323379 eV
  - T*S       (equipartition)  =        0.383568 eV
  Uvib        (equipartition)  =        0.227498 eV
  Mean kinetic energy          =        0.877327 eV
  Heat capacity - const volume =        0.000017 eV/K
                               =        1.619672 J/(mol.K)
--------------------------------------------------------------------------------
  Phonon properties (per mole of unit cells): Temperature =    120.000 K
--------------------------------------------------------------------------------
  Zero point energy            =        1.754214 eV
  Entropy                      =        0.000007 eV/K
                               =        0.667870 J/(mol.K)
  Helmholtz free-energy        =      -57.180427 eV
                               =    -5517.036625 kJmol-1
  Free energy (equipartition)  =      -58.289422 eV
  - T*S       (equipartition)  =        0.396843 eV
  Uvib        (equipartition)  =        0.248179 eV
  Mean kinetic energy          =        0.877424 eV
  Heat capacity - const volume =        0.000022 eV/K
                               =        2.153411 J/(mol.K)
--------------------------------------------------------------------------------
  Phonon properties (per mole of unit cells): Temperature =    130.000 K
--------------------------------------------------------------------------------
  Zero point energy            =        1.754214 eV
  Entropy                      =        0.000009 eV/K
                               =        0.865053 J/(mol.K)
  Helmholtz free-energy        =      -57.180506 eV
                               =    -5517.044260 kJmol-1
  Free energy (equipartition)  =      -58.257191 eV
  - T*S       (equipartition)  =        0.408393 eV
  Uvib        (equipartition)  =        0.268861 eV
  Mean kinetic energy          =        0.877552 eV
  Heat capacity - const volume =        0.000029 eV/K
                               =        2.802268 J/(mol.K)
--------------------------------------------------------------------------------
  Phonon properties (per mole of unit cells): Temperature =    140.000 K
--------------------------------------------------------------------------------
  Zero point energy            =        1.754214 eV
  Entropy                      =        0.000011 eV/K
                               =        1.100246 J/(mol.K)
  Helmholtz free-energy        =      -57.180607 eV
                               =    -5517.054053 kJmol-1
  Free energy (equipartition)  =      -58.226552 eV
  - T*S       (equipartition)  =        0.418351 eV
  Uvib        (equipartition)  =        0.289542 eV
  Mean kinetic energy          =        0.877717 eV
  Heat capacity - const volume =        0.000037 eV/K
                               =        3.576145 J/(mol.K)
--------------------------------------------------------------------------------
  Phonon properties (per mole of unit cells): Temperature =    150.000 K
--------------------------------------------------------------------------------
  Zero point energy            =        1.754214 eV
  Entropy                      =        0.000014 eV/K
                               =        1.377106 J/(mol.K)
  Helmholtz free-energy        =      -57.180735 eV
                               =    -5517.066404 kJmol-1
  Free energy (equipartition)  =      -58.197391 eV
  - T*S       (equipartition)  =        0.426830 eV
  Uvib        (equipartition)  =        0.310224 eV
  Mean kinetic energy          =        0.877925 eV
  Heat capacity - const volume =        0.000046 eV/K
                               =        4.482631 J/(mol.K)
--------------------------------------------------------------------------------
  Phonon properties (per mole of unit cells): Temperature =    160.000 K
--------------------------------------------------------------------------------
  Zero point energy            =        1.754214 eV
  Entropy                      =        0.000018 eV/K
                               =        1.698993 J/(mol.K)
  Helmholtz free-energy        =      -57.180894 eV
                               =    -5517.081745 kJmol-1
  Free energy (equipartition)  =      -58.169610 eV
  - T*S       (equipartition)  =        0.433929 eV
  Uvib        (equipartition)  =        0.330906 eV
  Mean kinetic energy          =        0.878184 eV
  Heat capacity - const volume =        0.000057 eV/K
                               =        5.526888 J/(mol.K)
--------------------------------------------------------------------------------
  Phonon properties (per mole of unit cells): Temperature =    170.000 K
--------------------------------------------------------------------------------
  Zero point energy            =        1.754214 eV
  Entropy                      =        0.000021 eV/K
                               =        2.068897 J/(mol.K)
  Helmholtz free-energy        =      -57.181089 eV
                               =    -5517.100544 kJmol-1
  Free energy (equipartition)  =      -58.143123 eV
  - T*S       (equipartition)  =        0.439734 eV
  Uvib        (equipartition)  =        0.351587 eV
  Mean kinetic energy          =        0.878500 eV
  Heat capacity - const volume =        0.000070 eV/K
                               =        6.711728 J/(mol.K)
--------------------------------------------------------------------------------
  Phonon properties (per mole of unit cells): Temperature =    180.000 K
--------------------------------------------------------------------------------
  Zero point energy            =        1.754214 eV
  Entropy                      =        0.000026 eV/K
                               =        2.489395 J/(mol.K)
  Helmholtz free-energy        =      -57.181325 eV
                               =    -5517.123292 kJmol-1
  Free energy (equipartition)  =      -58.117853 eV
  - T*S       (equipartition)  =        0.444323 eV
  Uvib        (equipartition)  =        0.372269 eV
  Mean kinetic energy          =        0.878882 eV
  Heat capacity - const volume =        0.000083 eV/K
                               =        8.037803 J/(mol.K)
--------------------------------------------------------------------------------
  Phonon properties (per mole of unit cells): Temperature =    190.000 K
--------------------------------------------------------------------------------
  Zero point energy            =        1.754214 eV
  Entropy                      =        0.000031 eV/K
                               =        2.962626 J/(mol.K)
  Helmholtz free-energy        =      -57.181607 eV
                               =    -5517.150507 kJmol-1
  Free energy (equipartition)  =      -58.093733 eV
  - T*S       (equipartition)  =        0.447762 eV
  Uvib        (equipartition)  =        0.392951 eV
  Mean kinetic energy          =        0.879336 eV
  Heat capacity - const volume =        0.000099 eV/K
                               =        9.503840 J/(mol.K)
--------------------------------------------------------------------------------
  Phonon properties (per mole of unit cells): Temperature =    200.000 K
--------------------------------------------------------------------------------
  Zero point energy            =        1.754214 eV
  Entropy                      =        0.000036 eV/K
                               =        3.490294 J/(mol.K)
  Helmholtz free-energy        =      -57.181941 eV
                               =    -5517.182726 kJmol-1
  Free energy (equipartition)  =      -58.070701 eV
  - T*S       (equipartition)  =        0.450112 eV
  Uvib        (equipartition)  =        0.413632 eV
  Mean kinetic energy          =        0.879869 eV
  Heat capacity - const volume =        0.000115 eV/K
                               =       11.106889 J/(mol.K)
--------------------------------------------------------------------------------
  Phonon properties (per mole of unit cells): Temperature =    210.000 K
--------------------------------------------------------------------------------
  Zero point energy            =        1.754214 eV
  Entropy                      =        0.000042 eV/K
                               =        4.073669 J/(mol.K)
  Helmholtz free-energy        =      -57.182333 eV
                               =    -5517.220499 kJmol-1
  Free energy (equipartition)  =      -58.048704 eV
  - T*S       (equipartition)  =        0.451427 eV
  Uvib        (equipartition)  =        0.434314 eV
  Mean kinetic energy          =        0.880489 eV
  Heat capacity - const volume =        0.000133 eV/K
                               =       12.842553 J/(mol.K)
--------------------------------------------------------------------------------
  Phonon properties (per mole of unit cells): Temperature =    220.000 K
--------------------------------------------------------------------------------
  Zero point energy            =        1.754214 eV
  Entropy                      =        0.000049 eV/K
                               =        4.713615 J/(mol.K)
  Helmholtz free-energy        =      -57.182787 eV
                               =    -5517.264388 kJmol-1
  Free energy (equipartition)  =      -58.027693 eV
  - T*S       (equipartition)  =        0.451757 eV
  Uvib        (equipartition)  =        0.454995 eV
  Mean kinetic energy          =        0.881203 eV
  Heat capacity - const volume =        0.000152 eV/K
                               =       14.705207 J/(mol.K)
--------------------------------------------------------------------------------
  Phonon properties (per mole of unit cells): Temperature =    230.000 K
--------------------------------------------------------------------------------
  Zero point energy            =        1.754214 eV
  Entropy                      =        0.000056 eV/K
                               =        5.410602 J/(mol.K)
  Helmholtz free-energy        =      -57.183312 eV
                               =    -5517.314962 kJmol-1
  Free energy (equipartition)  =      -58.007621 eV
  - T*S       (equipartition)  =        0.451147 eV
  Uvib        (equipartition)  =        0.475677 eV
  Mean kinetic energy          =        0.882016 eV
  Heat capacity - const volume =        0.000173 eV/K
                               =       16.688192 J/(mol.K)
--------------------------------------------------------------------------------
  Phonon properties (per mole of unit cells): Temperature =    240.000 K
--------------------------------------------------------------------------------
  Zero point energy            =        1.754214 eV
  Entropy                      =        0.000064 eV/K
                               =        6.164741 J/(mol.K)
  Helmholtz free-energy        =      -57.183911 eV
                               =    -5517.372791 kJmol-1
  Free energy (equipartition)  =      -57.988449 eV
  - T*S       (equipartition)  =        0.449637 eV
  Uvib        (equipartition)  =        0.496359 eV
  Mean kinetic energy          =        0.882934 eV
  Heat capacity - const volume =        0.000195 eV/K
                               =       18.784002 J/(mol.K)
--------------------------------------------------------------------------------
  Phonon properties (per mole of unit cells): Temperature =    250.000 K
--------------------------------------------------------------------------------
  Zero point energy            =        1.754214 eV
  Entropy                      =        0.000072 eV/K
                               =        6.975808 J/(mol.K)
  Helmholtz free-energy        =      -57.184591 eV
                               =    -5517.438446 kJmol-1
  Free energy (equipartition)  =      -57.970139 eV
  - T*S       (equipartition)  =        0.447265 eV
  Uvib        (equipartition)  =        0.517040 eV
  Mean kinetic energy          =        0.883964 eV
  Heat capacity - const volume =        0.000217 eV/K
                               =       20.984456 J/(mol.K)
--------------------------------------------------------------------------------
  Phonon properties (per mole of unit cells): Temperature =    260.000 K
--------------------------------------------------------------------------------
  Zero point energy            =        1.754214 eV
  Entropy                      =        0.000081 eV/K
                               =        7.843273 J/(mol.K)
  Helmholtz free-energy        =      -57.185359 eV
                               =    -5517.512495 kJmol-1
  Free energy (equipartition)  =      -57.952657 eV
  - T*S       (equipartition)  =        0.444066 eV
  Uvib        (equipartition)  =        0.537722 eV
  Mean kinetic energy          =        0.885111 eV
  Heat capacity - const volume =        0.000241 eV/K
                               =       23.280864 J/(mol.K)
--------------------------------------------------------------------------------
  Phonon properties (per mole of unit cells): Temperature =    270.000 K
--------------------------------------------------------------------------------
  Zero point energy            =        1.754214 eV
  Entropy                      =        0.000091 eV/K
                               =        8.766332 J/(mol.K)
  Helmholtz free-energy        =      -57.186219 eV
                               =    -5517.595497 kJmol-1
  Free energy (equipartition)  =      -57.935970 eV
  - T*S       (equipartition)  =        0.440071 eV
  Uvib        (equipartition)  =        0.558403 eV
  Mean kinetic energy          =        0.886379 eV
  Heat capacity - const volume =        0.000266 eV/K
                               =       25.664180 J/(mol.K)
--------------------------------------------------------------------------------
  Phonon properties (per mole of unit cells): Temperature =    280.000 K
--------------------------------------------------------------------------------
  Zero point energy            =        1.754214 eV
  Entropy                      =        0.000101 eV/K
                               =        9.743935 J/(mol.K)
  Helmholtz free-energy        =      -57.187178 eV
                               =    -5517.688003 kJmol-1
  Free energy (equipartition)  =      -57.920050 eV
  - T*S       (equipartition)  =        0.435310 eV
  Uvib        (equipartition)  =        0.579085 eV
  Mean kinetic energy          =        0.887772 eV
  Heat capacity - const volume =        0.000291 eV/K
                               =       28.125150 J/(mol.K)
--------------------------------------------------------------------------------
  Phonon properties (per mole of unit cells): Temperature =    290.000 K
--------------------------------------------------------------------------------
  Zero point energy            =        1.754214 eV
  Entropy                      =        0.000112 eV/K
                               =       10.774817 J/(mol.K)
  Helmholtz free-energy        =      -57.188241 eV
                               =    -5517.790553 kJmol-1
  Free energy (equipartition)  =      -57.904868 eV
  - T*S       (equipartition)  =        0.429810 eV
  Uvib        (equipartition)  =        0.599767 eV
  Mean kinetic energy          =        0.889295 eV
  Heat capacity - const volume =        0.000318 eV/K
                               =       30.654445 J/(mol.K)
--------------------------------------------------------------------------------
  Phonon properties (per mole of unit cells): Temperature =    300.000 K
--------------------------------------------------------------------------------
  Zero point energy            =        1.754214 eV
  Entropy                      =        0.000123 eV/K
                               =       11.857522 J/(mol.K)
  Helmholtz free-energy        =      -57.189413 eV
                               =    -5517.903672 kJmol-1
  Free energy (equipartition)  =      -57.890399 eV
  - T*S       (equipartition)  =        0.423597 eV
  Uvib        (equipartition)  =        0.620448 eV
  Mean kinetic energy          =        0.890950 eV
  Heat capacity - const volume =        0.000345 eV/K
                               =       33.242777 J/(mol.K)
--------------------------------------------------------------------------------

  Time to end of properties =      15.8805 seconds


  Peak dynamic memory used =       1.93 MB 


  Timing analysis for GULP :

--------------------------------------------------------------------------------
  Task / Subroutine                                          Time (Seconds)
--------------------------------------------------------------------------------
  Calculation of real space energy and derivatives                0.0049
  Calculation of Brenner energy and derivatives                  15.5154
  Calculation of phonons                                         15.7827
  Calculation of matrix inversion                                 0.0001
  Disk read/write operations to scratch files                     0.0605
--------------------------------------------------------------------------------
  Total CPU time                                                 15.8806
--------------------------------------------------------------------------------


  Job Finished at 09:35.20 31st July       2020                               

