********************************************************************************
*                       GENERAL UTILITY LATTICE PROGRAM                        *
*                                 Julian Gale                                  *
*                       Curtin Institute for Computation                       *
*                    School of Molecular and Life Sciences                     *
*                    Curtin University, Western Australia                      *
********************************************************************************
* Version = 5.2.0 * Last modified =  17th December 2019                        *
********************************************************************************
*  single       - perform a single point run                                   *
*  property     - calculate properties for final geometry                      *
*  phonon       - calculate phonons for final geometry                         *
********************************************************************************
* ASE calculation                                                              *
********************************************************************************


  Job Started  at 13:02.24 31st July       2020                               

  Number of CPUs =     1


  Total number of configurations input =      1

********************************************************************************
*  Input for Configuration =   1                                               *
********************************************************************************

  Formula = C8                                                          

  Number of irreducible atoms/shells =       8


  Total number atoms/shells =       8

  Dimensionality = 3               :  Bulk   



  Cartesian lattice vectors (Angstroms) :

        3.605300    0.000000    0.000000
        0.000000    3.605300    0.000000
        0.000000    0.000000    3.605300

  Cell parameters (Angstroms/Degrees):

  a =       3.6053    alpha =  90.0000
  b =       3.6053    beta  =  90.0000
  c =       3.6053    gamma =  90.0000

  Initial cell volume =          46.862368 Angs**3

  Shrinking factors =      8     8     8

  Temperature of configuration =   10.0     K 

  Pressure of configuration =         0.000 GPa 

  Fractional coordinates of asymmetric unit :

--------------------------------------------------------------------------------
   No.  Atomic       x           y          z         Charge      Occupancy
        Label      (Frac)      (Frac)     (Frac)        (e)         (Frac)  
--------------------------------------------------------------------------------
      1 C     c    0.000000    0.000000    0.000000     0.00000    1.000000    
      2 C     c    0.000000    0.500000    0.500000     0.00000    1.000000    
      3 C     c    0.500000    0.500000    0.000000     0.00000    1.000000    
      4 C     c    0.500000    0.000000    0.500000     0.00000    1.000000    
      5 C     c    0.750000    0.250000    0.750000     0.00000    1.000000    
      6 C     c    0.250000    0.250000    0.250000     0.00000    1.000000    
      7 C     c    0.250000    0.750000    0.750000     0.00000    1.000000    
      8 C     c    0.750000    0.750000    0.250000     0.00000    1.000000    
--------------------------------------------------------------------------------


  Brillouin zone sampling points :

--------------------------------------------------------------------------------
  Point number          x          y          z            Weight
--------------------------------------------------------------------------------
        1           0.062500   0.062500   0.062500     0.00390625
        2           0.062500   0.062500   0.187500     0.00390625
        3           0.062500   0.062500   0.312500     0.00390625
        4           0.062500   0.062500   0.437500     0.00390625
        5           0.062500   0.062500   0.562500     0.00390625
        6           0.062500   0.062500   0.687500     0.00390625
        7           0.062500   0.062500   0.812500     0.00390625
        8           0.062500   0.062500   0.937500     0.00390625
        9           0.062500   0.187500   0.062500     0.00390625
       10           0.062500   0.187500   0.187500     0.00390625
       11           0.062500   0.187500   0.312500     0.00390625
       12           0.062500   0.187500   0.437500     0.00390625
       13           0.062500   0.187500   0.562500     0.00390625
       14           0.062500   0.187500   0.687500     0.00390625
       15           0.062500   0.187500   0.812500     0.00390625
       16           0.062500   0.187500   0.937500     0.00390625
       17           0.062500   0.312500   0.062500     0.00390625
       18           0.062500   0.312500   0.187500     0.00390625
       19           0.062500   0.312500   0.312500     0.00390625
       20           0.062500   0.312500   0.437500     0.00390625
       21           0.062500   0.312500   0.562500     0.00390625
       22           0.062500   0.312500   0.687500     0.00390625
       23           0.062500   0.312500   0.812500     0.00390625
       24           0.062500   0.312500   0.937500     0.00390625
       25           0.062500   0.437500   0.062500     0.00390625
       26           0.062500   0.437500   0.187500     0.00390625
       27           0.062500   0.437500   0.312500     0.00390625
       28           0.062500   0.437500   0.437500     0.00390625
       29           0.062500   0.437500   0.562500     0.00390625
       30           0.062500   0.437500   0.687500     0.00390625
       31           0.062500   0.437500   0.812500     0.00390625
       32           0.062500   0.437500   0.937500     0.00390625
       33           0.062500   0.562500   0.062500     0.00390625
       34           0.062500   0.562500   0.187500     0.00390625
       35           0.062500   0.562500   0.312500     0.00390625
       36           0.062500   0.562500   0.437500     0.00390625
       37           0.062500   0.562500   0.562500     0.00390625
       38           0.062500   0.562500   0.687500     0.00390625
       39           0.062500   0.562500   0.812500     0.00390625
       40           0.062500   0.562500   0.937500     0.00390625
       41           0.062500   0.687500   0.062500     0.00390625
       42           0.062500   0.687500   0.187500     0.00390625
       43           0.062500   0.687500   0.312500     0.00390625
       44           0.062500   0.687500   0.437500     0.00390625
       45           0.062500   0.687500   0.562500     0.00390625
       46           0.062500   0.687500   0.687500     0.00390625
       47           0.062500   0.687500   0.812500     0.00390625
       48           0.062500   0.687500   0.937500     0.00390625
       49           0.062500   0.812500   0.062500     0.00390625
       50           0.062500   0.812500   0.187500     0.00390625
       51           0.062500   0.812500   0.312500     0.00390625
       52           0.062500   0.812500   0.437500     0.00390625
       53           0.062500   0.812500   0.562500     0.00390625
       54           0.062500   0.812500   0.687500     0.00390625
       55           0.062500   0.812500   0.812500     0.00390625
       56           0.062500   0.812500   0.937500     0.00390625
       57           0.062500   0.937500   0.062500     0.00390625
       58           0.062500   0.937500   0.187500     0.00390625
       59           0.062500   0.937500   0.312500     0.00390625
       60           0.062500   0.937500   0.437500     0.00390625
       61           0.062500   0.937500   0.562500     0.00390625
       62           0.062500   0.937500   0.687500     0.00390625
       63           0.062500   0.937500   0.812500     0.00390625
       64           0.062500   0.937500   0.937500     0.00390625
       65           0.187500   0.062500   0.062500     0.00390625
       66           0.187500   0.062500   0.187500     0.00390625
       67           0.187500   0.062500   0.312500     0.00390625
       68           0.187500   0.062500   0.437500     0.00390625
       69           0.187500   0.062500   0.562500     0.00390625
       70           0.187500   0.062500   0.687500     0.00390625
       71           0.187500   0.062500   0.812500     0.00390625
       72           0.187500   0.062500   0.937500     0.00390625
       73           0.187500   0.187500   0.062500     0.00390625
       74           0.187500   0.187500   0.187500     0.00390625
       75           0.187500   0.187500   0.312500     0.00390625
       76           0.187500   0.187500   0.437500     0.00390625
       77           0.187500   0.187500   0.562500     0.00390625
       78           0.187500   0.187500   0.687500     0.00390625
       79           0.187500   0.187500   0.812500     0.00390625
       80           0.187500   0.187500   0.937500     0.00390625
       81           0.187500   0.312500   0.062500     0.00390625
       82           0.187500   0.312500   0.187500     0.00390625
       83           0.187500   0.312500   0.312500     0.00390625
       84           0.187500   0.312500   0.437500     0.00390625
       85           0.187500   0.312500   0.562500     0.00390625
       86           0.187500   0.312500   0.687500     0.00390625
       87           0.187500   0.312500   0.812500     0.00390625
       88           0.187500   0.312500   0.937500     0.00390625
       89           0.187500   0.437500   0.062500     0.00390625
       90           0.187500   0.437500   0.187500     0.00390625
       91           0.187500   0.437500   0.312500     0.00390625
       92           0.187500   0.437500   0.437500     0.00390625
       93           0.187500   0.437500   0.562500     0.00390625
       94           0.187500   0.437500   0.687500     0.00390625
       95           0.187500   0.437500   0.812500     0.00390625
       96           0.187500   0.437500   0.937500     0.00390625
       97           0.187500   0.562500   0.062500     0.00390625
       98           0.187500   0.562500   0.187500     0.00390625
       99           0.187500   0.562500   0.312500     0.00390625
      100           0.187500   0.562500   0.437500     0.00390625
      101           0.187500   0.562500   0.562500     0.00390625
      102           0.187500   0.562500   0.687500     0.00390625
      103           0.187500   0.562500   0.812500     0.00390625
      104           0.187500   0.562500   0.937500     0.00390625
      105           0.187500   0.687500   0.062500     0.00390625
      106           0.187500   0.687500   0.187500     0.00390625
      107           0.187500   0.687500   0.312500     0.00390625
      108           0.187500   0.687500   0.437500     0.00390625
      109           0.187500   0.687500   0.562500     0.00390625
      110           0.187500   0.687500   0.687500     0.00390625
      111           0.187500   0.687500   0.812500     0.00390625
      112           0.187500   0.687500   0.937500     0.00390625
      113           0.187500   0.812500   0.062500     0.00390625
      114           0.187500   0.812500   0.187500     0.00390625
      115           0.187500   0.812500   0.312500     0.00390625
      116           0.187500   0.812500   0.437500     0.00390625
      117           0.187500   0.812500   0.562500     0.00390625
      118           0.187500   0.812500   0.687500     0.00390625
      119           0.187500   0.812500   0.812500     0.00390625
      120           0.187500   0.812500   0.937500     0.00390625
      121           0.187500   0.937500   0.062500     0.00390625
      122           0.187500   0.937500   0.187500     0.00390625
      123           0.187500   0.937500   0.312500     0.00390625
      124           0.187500   0.937500   0.437500     0.00390625
      125           0.187500   0.937500   0.562500     0.00390625
      126           0.187500   0.937500   0.687500     0.00390625
      127           0.187500   0.937500   0.812500     0.00390625
      128           0.187500   0.937500   0.937500     0.00390625
      129           0.312500   0.062500   0.062500     0.00390625
      130           0.312500   0.062500   0.187500     0.00390625
      131           0.312500   0.062500   0.312500     0.00390625
      132           0.312500   0.062500   0.437500     0.00390625
      133           0.312500   0.062500   0.562500     0.00390625
      134           0.312500   0.062500   0.687500     0.00390625
      135           0.312500   0.062500   0.812500     0.00390625
      136           0.312500   0.062500   0.937500     0.00390625
      137           0.312500   0.187500   0.062500     0.00390625
      138           0.312500   0.187500   0.187500     0.00390625
      139           0.312500   0.187500   0.312500     0.00390625
      140           0.312500   0.187500   0.437500     0.00390625
      141           0.312500   0.187500   0.562500     0.00390625
      142           0.312500   0.187500   0.687500     0.00390625
      143           0.312500   0.187500   0.812500     0.00390625
      144           0.312500   0.187500   0.937500     0.00390625
      145           0.312500   0.312500   0.062500     0.00390625
      146           0.312500   0.312500   0.187500     0.00390625
      147           0.312500   0.312500   0.312500     0.00390625
      148           0.312500   0.312500   0.437500     0.00390625
      149           0.312500   0.312500   0.562500     0.00390625
      150           0.312500   0.312500   0.687500     0.00390625
      151           0.312500   0.312500   0.812500     0.00390625
      152           0.312500   0.312500   0.937500     0.00390625
      153           0.312500   0.437500   0.062500     0.00390625
      154           0.312500   0.437500   0.187500     0.00390625
      155           0.312500   0.437500   0.312500     0.00390625
      156           0.312500   0.437500   0.437500     0.00390625
      157           0.312500   0.437500   0.562500     0.00390625
      158           0.312500   0.437500   0.687500     0.00390625
      159           0.312500   0.437500   0.812500     0.00390625
      160           0.312500   0.437500   0.937500     0.00390625
      161           0.312500   0.562500   0.062500     0.00390625
      162           0.312500   0.562500   0.187500     0.00390625
      163           0.312500   0.562500   0.312500     0.00390625
      164           0.312500   0.562500   0.437500     0.00390625
      165           0.312500   0.562500   0.562500     0.00390625
      166           0.312500   0.562500   0.687500     0.00390625
      167           0.312500   0.562500   0.812500     0.00390625
      168           0.312500   0.562500   0.937500     0.00390625
      169           0.312500   0.687500   0.062500     0.00390625
      170           0.312500   0.687500   0.187500     0.00390625
      171           0.312500   0.687500   0.312500     0.00390625
      172           0.312500   0.687500   0.437500     0.00390625
      173           0.312500   0.687500   0.562500     0.00390625
      174           0.312500   0.687500   0.687500     0.00390625
      175           0.312500   0.687500   0.812500     0.00390625
      176           0.312500   0.687500   0.937500     0.00390625
      177           0.312500   0.812500   0.062500     0.00390625
      178           0.312500   0.812500   0.187500     0.00390625
      179           0.312500   0.812500   0.312500     0.00390625
      180           0.312500   0.812500   0.437500     0.00390625
      181           0.312500   0.812500   0.562500     0.00390625
      182           0.312500   0.812500   0.687500     0.00390625
      183           0.312500   0.812500   0.812500     0.00390625
      184           0.312500   0.812500   0.937500     0.00390625
      185           0.312500   0.937500   0.062500     0.00390625
      186           0.312500   0.937500   0.187500     0.00390625
      187           0.312500   0.937500   0.312500     0.00390625
      188           0.312500   0.937500   0.437500     0.00390625
      189           0.312500   0.937500   0.562500     0.00390625
      190           0.312500   0.937500   0.687500     0.00390625
      191           0.312500   0.937500   0.812500     0.00390625
      192           0.312500   0.937500   0.937500     0.00390625
      193           0.437500   0.062500   0.062500     0.00390625
      194           0.437500   0.062500   0.187500     0.00390625
      195           0.437500   0.062500   0.312500     0.00390625
      196           0.437500   0.062500   0.437500     0.00390625
      197           0.437500   0.062500   0.562500     0.00390625
      198           0.437500   0.062500   0.687500     0.00390625
      199           0.437500   0.062500   0.812500     0.00390625
      200           0.437500   0.062500   0.937500     0.00390625
      201           0.437500   0.187500   0.062500     0.00390625
      202           0.437500   0.187500   0.187500     0.00390625
      203           0.437500   0.187500   0.312500     0.00390625
      204           0.437500   0.187500   0.437500     0.00390625
      205           0.437500   0.187500   0.562500     0.00390625
      206           0.437500   0.187500   0.687500     0.00390625
      207           0.437500   0.187500   0.812500     0.00390625
      208           0.437500   0.187500   0.937500     0.00390625
      209           0.437500   0.312500   0.062500     0.00390625
      210           0.437500   0.312500   0.187500     0.00390625
      211           0.437500   0.312500   0.312500     0.00390625
      212           0.437500   0.312500   0.437500     0.00390625
      213           0.437500   0.312500   0.562500     0.00390625
      214           0.437500   0.312500   0.687500     0.00390625
      215           0.437500   0.312500   0.812500     0.00390625
      216           0.437500   0.312500   0.937500     0.00390625
      217           0.437500   0.437500   0.062500     0.00390625
      218           0.437500   0.437500   0.187500     0.00390625
      219           0.437500   0.437500   0.312500     0.00390625
      220           0.437500   0.437500   0.437500     0.00390625
      221           0.437500   0.437500   0.562500     0.00390625
      222           0.437500   0.437500   0.687500     0.00390625
      223           0.437500   0.437500   0.812500     0.00390625
      224           0.437500   0.437500   0.937500     0.00390625
      225           0.437500   0.562500   0.062500     0.00390625
      226           0.437500   0.562500   0.187500     0.00390625
      227           0.437500   0.562500   0.312500     0.00390625
      228           0.437500   0.562500   0.437500     0.00390625
      229           0.437500   0.562500   0.562500     0.00390625
      230           0.437500   0.562500   0.687500     0.00390625
      231           0.437500   0.562500   0.812500     0.00390625
      232           0.437500   0.562500   0.937500     0.00390625
      233           0.437500   0.687500   0.062500     0.00390625
      234           0.437500   0.687500   0.187500     0.00390625
      235           0.437500   0.687500   0.312500     0.00390625
      236           0.437500   0.687500   0.437500     0.00390625
      237           0.437500   0.687500   0.562500     0.00390625
      238           0.437500   0.687500   0.687500     0.00390625
      239           0.437500   0.687500   0.812500     0.00390625
      240           0.437500   0.687500   0.937500     0.00390625
      241           0.437500   0.812500   0.062500     0.00390625
      242           0.437500   0.812500   0.187500     0.00390625
      243           0.437500   0.812500   0.312500     0.00390625
      244           0.437500   0.812500   0.437500     0.00390625
      245           0.437500   0.812500   0.562500     0.00390625
      246           0.437500   0.812500   0.687500     0.00390625
      247           0.437500   0.812500   0.812500     0.00390625
      248           0.437500   0.812500   0.937500     0.00390625
      249           0.437500   0.937500   0.062500     0.00390625
      250           0.437500   0.937500   0.187500     0.00390625
      251           0.437500   0.937500   0.312500     0.00390625
      252           0.437500   0.937500   0.437500     0.00390625
      253           0.437500   0.937500   0.562500     0.00390625
      254           0.437500   0.937500   0.687500     0.00390625
      255           0.437500   0.937500   0.812500     0.00390625
      256           0.437500   0.937500   0.937500     0.00390625
--------------------------------------------------------------------------------


********************************************************************************
*  General input information                                                   *
********************************************************************************

  Species output for all configurations : 

--------------------------------------------------------------------------------
  Species    Type    Atomic    Atomic    Charge       Radii (Angs)     Library
                     Number     Mass       (e)     Cova   Ionic  VDW   Symbol
--------------------------------------------------------------------------------
    C        Core        6      12.01   0.000000   0.770  0.000  1.530          
--------------------------------------------------------------------------------


  Lattice summation method               =    Ewald          (3-D)
                                         =    Parry          (2-D)
                                         =    Saunders et al (1-D)
  Accuracy factor for lattice sums       =   12.000


  Analytic derivatives to be used

  Time limit = Infinity

  Maximum range for interatomic potentials =    100000.000000 Angstroms

  Brenner et al 2002 potential to be used with explicit splines for P


********************************************************************************
*  Output for configuration   1                                                *
********************************************************************************


  Components of energy : 

--------------------------------------------------------------------------------
  Interatomic potentials     =           0.00000000 eV    
  Brenner potentials         =         -58.89141234 eV    
  Monopole - monopole (real) =           0.00000000 eV    
  Monopole - monopole (recip)=           0.00000000 eV    
  Monopole - monopole (total)=           0.00000000 eV    
--------------------------------------------------------------------------------
  Total lattice energy       =         -58.89141234 eV    
--------------------------------------------------------------------------------
  Total lattice energy       =           -5682.1211 kJ/(mole unit cells)
--------------------------------------------------------------------------------


  Elastic Constant Matrix: (Units=GPa)

-------------------------------------------------------------------------------
  Indices      1         2         3         4         5         6    
-------------------------------------------------------------------------------
       1    987.1163   92.6222   92.6222    0.0000    0.0000    0.0000
       2     92.6222  987.1163   92.6222    0.0000    0.0000    0.0000
       3     92.6222   92.6222  987.1163    0.0000    0.0000    0.0000
       4      0.0000    0.0000    0.0000  655.6709   -0.0000   -0.0000
       5      0.0000    0.0000    0.0000   -0.0000  655.6709   -0.0000
       6      0.0000    0.0000    0.0000   -0.0000   -0.0000  655.6709
-------------------------------------------------------------------------------


  Elastic Compliance Matrix: (Units=1/GPa)

-------------------------------------------------------------------------------
  Indices      1         2         3         4         5         6    
-------------------------------------------------------------------------------
       1    0.001030 -0.000088 -0.000088 -0.000000 -0.000000 -0.000000
       2   -0.000088  0.001030 -0.000088 -0.000000 -0.000000 -0.000000
       3   -0.000088 -0.000088  0.001030 -0.000000 -0.000000 -0.000000
       4   -0.000000 -0.000000 -0.000000  0.001525  0.000000  0.000000
       5   -0.000000 -0.000000 -0.000000  0.000000  0.001525  0.000000
       6   -0.000000 -0.000000 -0.000000  0.000000  0.000000  0.001525
-------------------------------------------------------------------------------

  Mechanical properties :

-------------------------------------------------------------------------------
  Convention :                    Reuss         Voigt         Hill
-------------------------------------------------------------------------------
  Bulk  Modulus (GPa)     =     390.78690     390.78690     390.78690
  Shear Modulus (GPa)     =     552.65303     572.30135     562.47719
-------------------------------------------------------------------------------
  Velocity S-wave (km/s)  =      12.74072      12.96522      12.85346
  Velocity P-wave (km/s)  =      18.19937      18.40956      18.30476
-------------------------------------------------------------------------------
  Compressibility (1/GPa) =    0.00255894
-------------------------------------------------------------------------------
  Stress axis :                     x             y             z
-------------------------------------------------------------------------------
  Youngs Moduli (GPa)     =     971.22559     971.22559     971.22559
-------------------------------------------------------------------------------
  Poissons Ratio (x)      =                     0.08578       0.08578
  Poissons Ratio (y)      =       0.08578                     0.08578
  Poissons Ratio (z)      =       0.08578       0.08578
-------------------------------------------------------------------------------


  Piezoelectric Strain Matrix: (Units=C/m**2)

-------------------------------------------------------------------------------
  Indices      1         2         3         4         5         6    
-------------------------------------------------------------------------------
       x    -0.00000  -0.00000  -0.00000  -0.00000  -0.00000  -0.00000
       y    -0.00000  -0.00000  -0.00000  -0.00000  -0.00000  -0.00000
       z    -0.00000  -0.00000  -0.00000  -0.00000  -0.00000  -0.00000
-------------------------------------------------------------------------------


  Piezoelectric Stress Matrix: (Units=10**-11 C/N)

-------------------------------------------------------------------------------
  Indices      1         2         3         4         5         6    
-------------------------------------------------------------------------------
       x     0.00000   0.00000   0.00000   0.00000   0.00000   0.00000
       y     0.00000   0.00000   0.00000   0.00000   0.00000   0.00000
       z     0.00000   0.00000   0.00000   0.00000   0.00000   0.00000
-------------------------------------------------------------------------------


  Static dielectric constant tensor : 

-------------------------------------------------------------------------------
              x         y         z
-------------------------------------------------------------------------------
       x     1.00000   0.00000   0.00000
       y     0.00000   1.00000   0.00000
       z     0.00000   0.00000   1.00000
--------------------------------------------------------------------------------

  Static refractive indices : 

-------------------------------------------------------------------------------
    1 =    1.00000      2 =    1.00000      3 =    1.00000
-------------------------------------------------------------------------------


  Phonon Calculation : 

  Number of k points for this configuration =      256

--------------------------------------------------------------------------------
  K point      1 =   0.062500  0.062500  0.062500  Weight =    0.004
--------------------------------------------------------------------------------

  Frequencies (cm-1) [NB: Negative implies an imaginary mode]:

  122.99  122.99  191.20 1024.15 1024.15 1024.15 1034.86 1034.86 1034.86
 1159.84 1159.84 1159.84 1195.80 1195.80 1195.80 1227.59 1227.59 1227.59
 1293.94 1293.94 1293.94 1499.40 1499.40 1503.88


--------------------------------------------------------------------------------
  K point      2 =   0.062500  0.062500  0.187500  Weight =    0.004
--------------------------------------------------------------------------------

  Frequencies (cm-1) [NB: Negative implies an imaginary mode]:

  240.93  255.69  343.57  934.26  941.56 1016.37 1016.37 1046.23 1046.23
 1084.75 1117.27 1117.27 1185.68 1185.68 1258.91 1258.91 1260.79 1268.32
 1307.55 1307.55 1358.95 1487.39 1488.07 1500.65


--------------------------------------------------------------------------------
  K point      3 =   0.062500  0.062500  0.312500  Weight =    0.004
--------------------------------------------------------------------------------

  Frequencies (cm-1) [NB: Negative implies an imaginary mode]:

  393.55  403.62  510.33  818.26  822.76  965.23 1014.49 1014.49 1055.79
 1055.79 1077.65 1077.65 1168.49 1168.49 1287.77 1287.77 1321.86 1321.86
 1327.62 1332.15 1410.56 1465.16 1465.31 1491.33


--------------------------------------------------------------------------------
  K point      4 =   0.062500  0.062500  0.437500  Weight =    0.004
--------------------------------------------------------------------------------

  Frequencies (cm-1) [NB: Negative implies an imaginary mode]:

  545.42  549.53  673.62  688.75  689.59  826.71 1020.99 1020.99 1044.77
 1044.77 1065.02 1065.02 1157.20 1157.20 1304.00 1304.00 1329.86 1329.86
 1384.96 1387.62 1430.96 1432.03 1448.46 1474.62


--------------------------------------------------------------------------------
  K point      5 =   0.062500  0.062500  0.562500  Weight =    0.004
--------------------------------------------------------------------------------

  Frequencies (cm-1) [NB: Negative implies an imaginary mode]:

  545.42  549.53  673.62  688.75  689.59  826.71 1020.99 1020.99 1044.77
 1044.77 1065.02 1065.02 1157.20 1157.20 1304.00 1304.00 1329.86 1329.86
 1384.96 1387.62 1430.96 1432.03 1448.46 1474.62


--------------------------------------------------------------------------------
  K point      6 =   0.062500  0.062500  0.687500  Weight =    0.004
--------------------------------------------------------------------------------

  Frequencies (cm-1) [NB: Negative implies an imaginary mode]:

  393.55  403.62  510.33  818.26  822.76  965.23 1014.49 1014.49 1055.79
 1055.79 1077.65 1077.65 1168.49 1168.49 1287.77 1287.77 1321.86 1321.86
 1327.62 1332.15 1410.56 1465.16 1465.31 1491.33


--------------------------------------------------------------------------------
  K point      7 =   0.062500  0.062500  0.812500  Weight =    0.004
--------------------------------------------------------------------------------

  Frequencies (cm-1) [NB: Negative implies an imaginary mode]:

  240.93  255.69  343.57  934.26  941.56 1016.37 1016.37 1046.23 1046.23
 1084.75 1117.27 1117.27 1185.68 1185.68 1258.91 1258.91 1260.79 1268.32
 1307.55 1307.55 1358.95 1487.39 1488.07 1500.65


--------------------------------------------------------------------------------
  K point      8 =   0.062500  0.062500  0.937500  Weight =    0.004
--------------------------------------------------------------------------------

  Frequencies (cm-1) [NB: Negative implies an imaginary mode]:

  122.99  122.99  191.20 1024.15 1024.15 1024.15 1034.86 1034.86 1034.86
 1159.84 1159.84 1159.84 1195.80 1195.80 1195.80 1227.59 1227.59 1227.59
 1293.94 1293.94 1293.94 1499.40 1499.40 1503.88


--------------------------------------------------------------------------------
  K point      9 =   0.062500  0.187500  0.062500  Weight =    0.004
--------------------------------------------------------------------------------

  Frequencies (cm-1) [NB: Negative implies an imaginary mode]:

  240.93  255.69  343.57  934.26  941.56 1016.37 1016.37 1046.23 1046.23
 1084.75 1117.27 1117.27 1185.68 1185.68 1258.91 1258.91 1260.79 1268.32
 1307.55 1307.55 1358.95 1487.39 1488.07 1500.65


--------------------------------------------------------------------------------
  K point     10 =   0.062500  0.187500  0.187500  Weight =    0.004
--------------------------------------------------------------------------------

  Frequencies (cm-1) [NB: Negative implies an imaginary mode]:

  289.52  336.63  458.45  932.53  932.53  954.36  954.36  983.84 1060.43
 1063.10 1063.10 1093.22 1212.21 1239.17 1255.45 1255.45 1291.40 1291.40
 1332.82 1354.18 1354.18 1473.39 1477.61 1498.86


--------------------------------------------------------------------------------
  K point     11 =   0.062500  0.187500  0.312500  Weight =    0.004
--------------------------------------------------------------------------------

  Frequencies (cm-1) [NB: Negative implies an imaginary mode]:

  403.21  458.42  594.70  815.86  842.03  933.79  956.82  970.63  972.05
 1043.04 1043.84 1078.46 1210.13 1244.37 1264.74 1319.21 1320.57 1342.10
 1344.66 1350.36 1401.34 1450.18 1457.34 1489.12


--------------------------------------------------------------------------------
  K point     12 =   0.062500  0.187500  0.437500  Weight =    0.004
--------------------------------------------------------------------------------

  Frequencies (cm-1) [NB: Negative implies an imaginary mode]:

  541.59  589.70  682.64  719.35  730.53  857.56  935.19  940.69  993.44
 1017.73 1041.85 1058.71 1216.03 1229.98 1296.96 1321.51 1346.46 1354.90
 1374.87 1388.89 1417.80 1427.53 1440.50 1469.84


--------------------------------------------------------------------------------
  K point     13 =   0.062500  0.187500  0.562500  Weight =    0.004
--------------------------------------------------------------------------------

  Frequencies (cm-1) [NB: Negative implies an imaginary mode]:

  541.59  589.70  682.64  719.35  730.53  857.56  935.19  940.69  993.44
 1017.73 1041.85 1058.71 1216.03 1229.98 1296.96 1321.51 1346.46 1354.90
 1374.87 1388.89 1417.80 1427.53 1440.50 1469.84


--------------------------------------------------------------------------------
  K point     14 =   0.062500  0.187500  0.687500  Weight =    0.004
--------------------------------------------------------------------------------

  Frequencies (cm-1) [NB: Negative implies an imaginary mode]:

  403.21  458.42  594.70  815.86  842.03  933.79  956.82  970.63  972.05
 1043.04 1043.84 1078.46 1210.13 1244.37 1264.74 1319.21 1320.57 1342.10
 1344.66 1350.36 1401.34 1450.18 1457.34 1489.12


--------------------------------------------------------------------------------
  K point     15 =   0.062500  0.187500  0.812500  Weight =    0.004
--------------------------------------------------------------------------------

  Frequencies (cm-1) [NB: Negative implies an imaginary mode]:

  289.52  336.63  458.45  932.53  932.53  954.36  954.36  983.84 1060.43
 1063.10 1063.10 1093.22 1212.21 1239.17 1255.45 1255.45 1291.40 1291.40
 1332.82 1354.18 1354.18 1473.39 1477.61 1498.86


--------------------------------------------------------------------------------
  K point     16 =   0.062500  0.187500  0.937500  Weight =    0.004
--------------------------------------------------------------------------------

  Frequencies (cm-1) [NB: Negative implies an imaginary mode]:

  240.93  255.69  343.57  934.26  941.56 1016.37 1016.37 1046.23 1046.23
 1084.75 1117.27 1117.27 1185.68 1185.68 1258.91 1258.91 1260.79 1268.32
 1307.55 1307.55 1358.95 1487.39 1488.07 1500.65


--------------------------------------------------------------------------------
  K point     17 =   0.062500  0.312500  0.062500  Weight =    0.004
--------------------------------------------------------------------------------

  Frequencies (cm-1) [NB: Negative implies an imaginary mode]:

  393.55  403.62  510.33  818.26  822.76  965.23 1014.49 1014.49 1055.79
 1055.79 1077.65 1077.65 1168.49 1168.49 1287.77 1287.77 1321.86 1321.86
 1327.62 1332.15 1410.56 1465.16 1465.31 1491.33


--------------------------------------------------------------------------------
  K point     18 =   0.062500  0.312500  0.187500  Weight =    0.004
--------------------------------------------------------------------------------

  Frequencies (cm-1) [NB: Negative implies an imaginary mode]:

  403.21  458.42  594.70  815.86  842.03  933.79  956.82  970.63  972.05
 1043.04 1043.84 1078.46 1210.13 1244.37 1264.74 1319.21 1320.57 1342.10
 1344.66 1350.36 1401.34 1450.18 1457.34 1489.12


--------------------------------------------------------------------------------
  K point     19 =   0.062500  0.312500  0.312500  Weight =    0.004
--------------------------------------------------------------------------------

  Frequencies (cm-1) [NB: Negative implies an imaginary mode]:

  464.72  552.37  699.66  816.13  816.13  878.46  878.46  900.63  982.10
  982.10 1011.75 1060.53 1249.23 1274.29 1307.10 1307.10 1356.99 1356.99
 1368.79 1382.60 1382.60 1426.07 1441.72 1478.43


--------------------------------------------------------------------------------
  K point     20 =   0.062500  0.312500  0.437500  Weight =    0.004
--------------------------------------------------------------------------------

  Frequencies (cm-1) [NB: Negative implies an imaginary mode]:

  567.70  661.79  690.02  773.25  804.63  827.71  855.88  900.66  925.14
  972.38 1000.77 1028.21 1268.78 1288.89 1316.02 1353.91 1356.16 1369.97
 1375.00 1390.29 1394.94 1418.97 1423.51 1456.60


--------------------------------------------------------------------------------
  K point     21 =   0.062500  0.312500  0.562500  Weight =    0.004
--------------------------------------------------------------------------------

  Frequencies (cm-1) [NB: Negative implies an imaginary mode]:

  567.70  661.79  690.02  773.25  804.63  827.71  855.88  900.66  925.14
  972.38 1000.77 1028.21 1268.78 1288.89 1316.02 1353.91 1356.16 1369.97
 1375.00 1390.29 1394.94 1418.97 1423.51 1456.60


--------------------------------------------------------------------------------
  K point     22 =   0.062500  0.312500  0.687500  Weight =    0.004
--------------------------------------------------------------------------------

  Frequencies (cm-1) [NB: Negative implies an imaginary mode]:

  464.72  552.37  699.66  816.13  816.13  878.46  878.46  900.63  982.10
  982.10 1011.75 1060.53 1249.23 1274.29 1307.10 1307.10 1356.99 1356.99
 1368.79 1382.60 1382.60 1426.07 1441.72 1478.43


--------------------------------------------------------------------------------
  K point     23 =   0.062500  0.312500  0.812500  Weight =    0.004
--------------------------------------------------------------------------------

  Frequencies (cm-1) [NB: Negative implies an imaginary mode]:

  403.21  458.42  594.70  815.86  842.03  933.79  956.82  970.63  972.05
 1043.04 1043.84 1078.46 1210.13 1244.37 1264.74 1319.21 1320.57 1342.10
 1344.66 1350.36 1401.34 1450.18 1457.34 1489.12


--------------------------------------------------------------------------------
  K point     24 =   0.062500  0.312500  0.937500  Weight =    0.004
--------------------------------------------------------------------------------

  Frequencies (cm-1) [NB: Negative implies an imaginary mode]:

  393.55  403.62  510.33  818.26  822.76  965.23 1014.49 1014.49 1055.79
 1055.79 1077.65 1077.65 1168.49 1168.49 1287.77 1287.77 1321.86 1321.86
 1327.62 1332.15 1410.56 1465.16 1465.31 1491.33


--------------------------------------------------------------------------------
  K point     25 =   0.062500  0.437500  0.062500  Weight =    0.004
--------------------------------------------------------------------------------

  Frequencies (cm-1) [NB: Negative implies an imaginary mode]:

  545.42  549.53  673.62  688.75  689.59  826.71 1020.99 1020.99 1044.77
 1044.77 1065.02 1065.02 1157.20 1157.20 1304.00 1304.00 1329.86 1329.86
 1384.96 1387.62 1430.96 1432.03 1448.46 1474.62


--------------------------------------------------------------------------------
  K point     26 =   0.062500  0.437500  0.187500  Weight =    0.004
--------------------------------------------------------------------------------

  Frequencies (cm-1) [NB: Negative implies an imaginary mode]:

  541.59  589.70  682.64  719.35  730.53  857.56  935.19  940.69  993.44
 1017.73 1041.85 1058.71 1216.03 1229.98 1296.96 1321.51 1346.46 1354.90
 1374.87 1388.89 1417.80 1427.53 1440.50 1469.84


--------------------------------------------------------------------------------
  K point     27 =   0.062500  0.437500  0.312500  Weight =    0.004
--------------------------------------------------------------------------------

  Frequencies (cm-1) [NB: Negative implies an imaginary mode]:

  567.70  661.79  690.02  773.25  804.63  827.71  855.88  900.66  925.14
  972.38 1000.77 1028.21 1268.78 1288.89 1316.02 1353.91 1356.16 1369.97
 1375.00 1390.29 1394.94 1418.97 1423.51 1456.60


--------------------------------------------------------------------------------
  K point     28 =   0.062500  0.437500  0.437500  Weight =    0.004
--------------------------------------------------------------------------------

  Frequencies (cm-1) [NB: Negative implies an imaginary mode]:

  631.35  722.44  722.44  749.71  779.94  840.85  840.85  878.69  910.94
  945.37  945.37  988.31 1303.37 1331.60 1331.60 1355.07 1365.88 1386.42
 1386.42 1387.67 1399.21 1399.21 1405.71 1432.54


--------------------------------------------------------------------------------
  K point     29 =   0.062500  0.437500  0.562500  Weight =    0.004
--------------------------------------------------------------------------------

  Frequencies (cm-1) [NB: Negative implies an imaginary mode]:

  631.35  722.44  722.44  749.71  779.94  840.85  840.85  878.69  910.94
  945.37  945.37  988.31 1303.37 1331.60 1331.60 1355.07 1365.88 1386.42
 1386.42 1387.67 1399.21 1399.21 1405.71 1432.54


--------------------------------------------------------------------------------
  K point     30 =   0.062500  0.437500  0.687500  Weight =    0.004
--------------------------------------------------------------------------------

  Frequencies (cm-1) [NB: Negative implies an imaginary mode]:

  567.70  661.79  690.02  773.25  804.63  827.71  855.88  900.66  925.14
  972.38 1000.77 1028.21 1268.78 1288.89 1316.02 1353.91 1356.16 1369.97
 1375.00 1390.29 1394.94 1418.97 1423.51 1456.60


--------------------------------------------------------------------------------
  K point     31 =   0.062500  0.437500  0.812500  Weight =    0.004
--------------------------------------------------------------------------------

  Frequencies (cm-1) [NB: Negative implies an imaginary mode]:

  541.59  589.70  682.64  719.35  730.53  857.56  935.19  940.69  993.44
 1017.73 1041.85 1058.71 1216.03 1229.98 1296.96 1321.51 1346.46 1354.90
 1374.87 1388.89 1417.80 1427.53 1440.50 1469.84


--------------------------------------------------------------------------------
  K point     32 =   0.062500  0.437500  0.937500  Weight =    0.004
--------------------------------------------------------------------------------

  Frequencies (cm-1) [NB: Negative implies an imaginary mode]:

  545.42  549.53  673.62  688.75  689.59  826.71 1020.99 1020.99 1044.77
 1044.77 1065.02 1065.02 1157.20 1157.20 1304.00 1304.00 1329.86 1329.86
 1384.96 1387.62 1430.96 1432.03 1448.46 1474.62


--------------------------------------------------------------------------------
  K point     33 =   0.062500  0.562500  0.062500  Weight =    0.004
--------------------------------------------------------------------------------

  Frequencies (cm-1) [NB: Negative implies an imaginary mode]:

  545.42  549.53  673.62  688.75  689.59  826.71 1020.99 1020.99 1044.77
 1044.77 1065.02 1065.02 1157.20 1157.20 1304.00 1304.00 1329.86 1329.86
 1384.96 1387.62 1430.96 1432.03 1448.46 1474.62


--------------------------------------------------------------------------------
  K point     34 =   0.062500  0.562500  0.187500  Weight =    0.004
--------------------------------------------------------------------------------

  Frequencies (cm-1) [NB: Negative implies an imaginary mode]:

  541.59  589.70  682.64  719.35  730.53  857.56  935.19  940.69  993.44
 1017.73 1041.85 1058.71 1216.03 1229.98 1296.96 1321.51 1346.46 1354.90
 1374.87 1388.89 1417.80 1427.53 1440.50 1469.84


--------------------------------------------------------------------------------
  K point     35 =   0.062500  0.562500  0.312500  Weight =    0.004
--------------------------------------------------------------------------------

  Frequencies (cm-1) [NB: Negative implies an imaginary mode]:

  567.70  661.79  690.02  773.25  804.63  827.71  855.88  900.66  925.14
  972.38 1000.77 1028.21 1268.78 1288.89 1316.02 1353.91 1356.16 1369.97
 1375.00 1390.29 1394.94 1418.97 1423.51 1456.60


--------------------------------------------------------------------------------
  K point     36 =   0.062500  0.562500  0.437500  Weight =    0.004
--------------------------------------------------------------------------------

  Frequencies (cm-1) [NB: Negative implies an imaginary mode]:

  631.35  722.44  722.44  749.71  779.94  840.85  840.85  878.69  910.94
  945.37  945.37  988.31 1303.37 1331.60 1331.60 1355.07 1365.88 1386.42
 1386.42 1387.67 1399.21 1399.21 1405.71 1432.54


--------------------------------------------------------------------------------
  K point     37 =   0.062500  0.562500  0.562500  Weight =    0.004
--------------------------------------------------------------------------------

  Frequencies (cm-1) [NB: Negative implies an imaginary mode]:

  631.35  722.44  722.44  749.71  779.94  840.85  840.85  878.69  910.94
  945.37  945.37  988.31 1303.37 1331.60 1331.60 1355.07 1365.88 1386.42
 1386.42 1387.67 1399.21 1399.21 1405.71 1432.54


--------------------------------------------------------------------------------
  K point     38 =   0.062500  0.562500  0.687500  Weight =    0.004
--------------------------------------------------------------------------------

  Frequencies (cm-1) [NB: Negative implies an imaginary mode]:

  567.70  661.79  690.02  773.25  804.63  827.71  855.88  900.66  925.14
  972.38 1000.77 1028.21 1268.78 1288.89 1316.02 1353.91 1356.16 1369.97
 1375.00 1390.29 1394.94 1418.97 1423.51 1456.60


--------------------------------------------------------------------------------
  K point     39 =   0.062500  0.562500  0.812500  Weight =    0.004
--------------------------------------------------------------------------------

  Frequencies (cm-1) [NB: Negative implies an imaginary mode]:

  541.59  589.70  682.64  719.35  730.53  857.56  935.19  940.69  993.44
 1017.73 1041.85 1058.71 1216.03 1229.98 1296.96 1321.51 1346.46 1354.90
 1374.87 1388.89 1417.80 1427.53 1440.50 1469.84


--------------------------------------------------------------------------------
  K point     40 =   0.062500  0.562500  0.937500  Weight =    0.004
--------------------------------------------------------------------------------

  Frequencies (cm-1) [NB: Negative implies an imaginary mode]:

  545.42  549.53  673.62  688.75  689.59  826.71 1020.99 1020.99 1044.77
 1044.77 1065.02 1065.02 1157.20 1157.20 1304.00 1304.00 1329.86 1329.86
 1384.96 1387.62 1430.96 1432.03 1448.46 1474.62


--------------------------------------------------------------------------------
  K point     41 =   0.062500  0.687500  0.062500  Weight =    0.004
--------------------------------------------------------------------------------

  Frequencies (cm-1) [NB: Negative implies an imaginary mode]:

  393.55  403.62  510.33  818.26  822.76  965.23 1014.49 1014.49 1055.79
 1055.79 1077.65 1077.65 1168.49 1168.49 1287.77 1287.77 1321.86 1321.86
 1327.62 1332.15 1410.56 1465.16 1465.31 1491.33


--------------------------------------------------------------------------------
  K point     42 =   0.062500  0.687500  0.187500  Weight =    0.004
--------------------------------------------------------------------------------

  Frequencies (cm-1) [NB: Negative implies an imaginary mode]:

  403.21  458.42  594.70  815.86  842.03  933.79  956.82  970.63  972.05
 1043.04 1043.84 1078.46 1210.13 1244.37 1264.74 1319.21 1320.57 1342.10
 1344.66 1350.36 1401.34 1450.18 1457.34 1489.12


--------------------------------------------------------------------------------
  K point     43 =   0.062500  0.687500  0.312500  Weight =    0.004
--------------------------------------------------------------------------------

  Frequencies (cm-1) [NB: Negative implies an imaginary mode]:

  464.72  552.37  699.66  816.13  816.13  878.46  878.46  900.63  982.10
  982.10 1011.75 1060.53 1249.23 1274.29 1307.10 1307.10 1356.99 1356.99
 1368.79 1382.60 1382.60 1426.07 1441.72 1478.43


--------------------------------------------------------------------------------
  K point     44 =   0.062500  0.687500  0.437500  Weight =    0.004
--------------------------------------------------------------------------------

  Frequencies (cm-1) [NB: Negative implies an imaginary mode]:

  567.70  661.79  690.02  773.25  804.63  827.71  855.88  900.66  925.14
  972.38 1000.77 1028.21 1268.78 1288.89 1316.02 1353.91 1356.16 1369.97
 1375.00 1390.29 1394.94 1418.97 1423.51 1456.60


--------------------------------------------------------------------------------
  K point     45 =   0.062500  0.687500  0.562500  Weight =    0.004
--------------------------------------------------------------------------------

  Frequencies (cm-1) [NB: Negative implies an imaginary mode]:

  567.70  661.79  690.02  773.25  804.63  827.71  855.88  900.66  925.14
  972.38 1000.77 1028.21 1268.78 1288.89 1316.02 1353.91 1356.16 1369.97
 1375.00 1390.29 1394.94 1418.97 1423.51 1456.60


--------------------------------------------------------------------------------
  K point     46 =   0.062500  0.687500  0.687500  Weight =    0.004
--------------------------------------------------------------------------------

  Frequencies (cm-1) [NB: Negative implies an imaginary mode]:

  464.72  552.37  699.66  816.13  816.13  878.46  878.46  900.63  982.10
  982.10 1011.75 1060.53 1249.23 1274.29 1307.10 1307.10 1356.99 1356.99
 1368.79 1382.60 1382.60 1426.07 1441.72 1478.43


--------------------------------------------------------------------------------
  K point     47 =   0.062500  0.687500  0.812500  Weight =    0.004
--------------------------------------------------------------------------------

  Frequencies (cm-1) [NB: Negative implies an imaginary mode]:

  403.21  458.42  594.70  815.86  842.03  933.79  956.82  970.63  972.05
 1043.04 1043.84 1078.46 1210.13 1244.37 1264.74 1319.21 1320.57 1342.10
 1344.66 1350.36 1401.34 1450.18 1457.34 1489.12


--------------------------------------------------------------------------------
  K point     48 =   0.062500  0.687500  0.937500  Weight =    0.004
--------------------------------------------------------------------------------

  Frequencies (cm-1) [NB: Negative implies an imaginary mode]:

  393.55  403.62  510.33  818.26  822.76  965.23 1014.49 1014.49 1055.79
 1055.79 1077.65 1077.65 1168.49 1168.49 1287.77 1287.77 1321.86 1321.86
 1327.62 1332.15 1410.56 1465.16 1465.31 1491.33


--------------------------------------------------------------------------------
  K point     49 =   0.062500  0.812500  0.062500  Weight =    0.004
--------------------------------------------------------------------------------

  Frequencies (cm-1) [NB: Negative implies an imaginary mode]:

  240.93  255.69  343.57  934.26  941.56 1016.37 1016.37 1046.23 1046.23
 1084.75 1117.27 1117.27 1185.68 1185.68 1258.91 1258.91 1260.79 1268.32
 1307.55 1307.55 1358.95 1487.39 1488.07 1500.65


--------------------------------------------------------------------------------
  K point     50 =   0.062500  0.812500  0.187500  Weight =    0.004
--------------------------------------------------------------------------------

  Frequencies (cm-1) [NB: Negative implies an imaginary mode]:

  289.52  336.63  458.45  932.53  932.53  954.36  954.36  983.84 1060.43
 1063.10 1063.10 1093.22 1212.21 1239.17 1255.45 1255.45 1291.40 1291.40
 1332.82 1354.18 1354.18 1473.39 1477.61 1498.86


--------------------------------------------------------------------------------
  K point     51 =   0.062500  0.812500  0.312500  Weight =    0.004
--------------------------------------------------------------------------------

  Frequencies (cm-1) [NB: Negative implies an imaginary mode]:

  403.21  458.42  594.70  815.86  842.03  933.79  956.82  970.63  972.05
 1043.04 1043.84 1078.46 1210.13 1244.37 1264.74 1319.21 1320.57 1342.10
 1344.66 1350.36 1401.34 1450.18 1457.34 1489.12


--------------------------------------------------------------------------------
  K point     52 =   0.062500  0.812500  0.437500  Weight =    0.004
--------------------------------------------------------------------------------

  Frequencies (cm-1) [NB: Negative implies an imaginary mode]:

  541.59  589.70  682.64  719.35  730.53  857.56  935.19  940.69  993.44
 1017.73 1041.85 1058.71 1216.03 1229.98 1296.96 1321.51 1346.46 1354.90
 1374.87 1388.89 1417.80 1427.53 1440.50 1469.84


--------------------------------------------------------------------------------
  K point     53 =   0.062500  0.812500  0.562500  Weight =    0.004
--------------------------------------------------------------------------------

  Frequencies (cm-1) [NB: Negative implies an imaginary mode]:

  541.59  589.70  682.64  719.35  730.53  857.56  935.19  940.69  993.44
 1017.73 1041.85 1058.71 1216.03 1229.98 1296.96 1321.51 1346.46 1354.90
 1374.87 1388.89 1417.80 1427.53 1440.50 1469.84


--------------------------------------------------------------------------------
  K point     54 =   0.062500  0.812500  0.687500  Weight =    0.004
--------------------------------------------------------------------------------

  Frequencies (cm-1) [NB: Negative implies an imaginary mode]:

  403.21  458.42  594.70  815.86  842.03  933.79  956.82  970.63  972.05
 1043.04 1043.84 1078.46 1210.13 1244.37 1264.74 1319.21 1320.57 1342.10
 1344.66 1350.36 1401.34 1450.18 1457.34 1489.12


--------------------------------------------------------------------------------
  K point     55 =   0.062500  0.812500  0.812500  Weight =    0.004
--------------------------------------------------------------------------------

  Frequencies (cm-1) [NB: Negative implies an imaginary mode]:

  289.52  336.63  458.45  932.53  932.53  954.36  954.36  983.84 1060.43
 1063.10 1063.10 1093.22 1212.21 1239.17 1255.45 1255.45 1291.40 1291.40
 1332.82 1354.18 1354.18 1473.39 1477.61 1498.86


--------------------------------------------------------------------------------
  K point     56 =   0.062500  0.812500  0.937500  Weight =    0.004
--------------------------------------------------------------------------------

  Frequencies (cm-1) [NB: Negative implies an imaginary mode]:

  240.93  255.69  343.57  934.26  941.56 1016.37 1016.37 1046.23 1046.23
 1084.75 1117.27 1117.27 1185.68 1185.68 1258.91 1258.91 1260.79 1268.32
 1307.55 1307.55 1358.95 1487.39 1488.07 1500.65


--------------------------------------------------------------------------------
  K point     57 =   0.062500  0.937500  0.062500  Weight =    0.004
--------------------------------------------------------------------------------

  Frequencies (cm-1) [NB: Negative implies an imaginary mode]:

  122.99  122.99  191.20 1024.15 1024.15 1024.15 1034.86 1034.86 1034.86
 1159.84 1159.84 1159.84 1195.80 1195.80 1195.80 1227.59 1227.59 1227.59
 1293.94 1293.94 1293.94 1499.40 1499.40 1503.88


--------------------------------------------------------------------------------
  K point     58 =   0.062500  0.937500  0.187500  Weight =    0.004
--------------------------------------------------------------------------------

  Frequencies (cm-1) [NB: Negative implies an imaginary mode]:

  240.93  255.69  343.57  934.26  941.56 1016.37 1016.37 1046.23 1046.23
 1084.75 1117.27 1117.27 1185.68 1185.68 1258.91 1258.91 1260.79 1268.32
 1307.55 1307.55 1358.95 1487.39 1488.07 1500.65


--------------------------------------------------------------------------------
  K point     59 =   0.062500  0.937500  0.312500  Weight =    0.004
--------------------------------------------------------------------------------

  Frequencies (cm-1) [NB: Negative implies an imaginary mode]:

  393.55  403.62  510.33  818.26  822.76  965.23 1014.49 1014.49 1055.79
 1055.79 1077.65 1077.65 1168.49 1168.49 1287.77 1287.77 1321.86 1321.86
 1327.62 1332.15 1410.56 1465.16 1465.31 1491.33


--------------------------------------------------------------------------------
  K point     60 =   0.062500  0.937500  0.437500  Weight =    0.004
--------------------------------------------------------------------------------

  Frequencies (cm-1) [NB: Negative implies an imaginary mode]:

  545.42  549.53  673.62  688.75  689.59  826.71 1020.99 1020.99 1044.77
 1044.77 1065.02 1065.02 1157.20 1157.20 1304.00 1304.00 1329.86 1329.86
 1384.96 1387.62 1430.96 1432.03 1448.46 1474.62


--------------------------------------------------------------------------------
  K point     61 =   0.062500  0.937500  0.562500  Weight =    0.004
--------------------------------------------------------------------------------

  Frequencies (cm-1) [NB: Negative implies an imaginary mode]:

  545.42  549.53  673.62  688.75  689.59  826.71 1020.99 1020.99 1044.77
 1044.77 1065.02 1065.02 1157.20 1157.20 1304.00 1304.00 1329.86 1329.86
 1384.96 1387.62 1430.96 1432.03 1448.46 1474.62


--------------------------------------------------------------------------------
  K point     62 =   0.062500  0.937500  0.687500  Weight =    0.004
--------------------------------------------------------------------------------

  Frequencies (cm-1) [NB: Negative implies an imaginary mode]:

  393.55  403.62  510.33  818.26  822.76  965.23 1014.49 1014.49 1055.79
 1055.79 1077.65 1077.65 1168.49 1168.49 1287.77 1287.77 1321.86 1321.86
 1327.62 1332.15 1410.56 1465.16 1465.31 1491.33


--------------------------------------------------------------------------------
  K point     63 =   0.062500  0.937500  0.812500  Weight =    0.004
--------------------------------------------------------------------------------

  Frequencies (cm-1) [NB: Negative implies an imaginary mode]:

  240.93  255.69  343.57  934.26  941.56 1016.37 1016.37 1046.23 1046.23
 1084.75 1117.27 1117.27 1185.68 1185.68 1258.91 1258.91 1260.79 1268.32
 1307.55 1307.55 1358.95 1487.39 1488.07 1500.65


--------------------------------------------------------------------------------
  K point     64 =   0.062500  0.937500  0.937500  Weight =    0.004
--------------------------------------------------------------------------------

  Frequencies (cm-1) [NB: Negative implies an imaginary mode]:

  122.99  122.99  191.20 1024.15 1024.15 1024.15 1034.86 1034.86 1034.86
 1159.84 1159.84 1159.84 1195.80 1195.80 1195.80 1227.59 1227.59 1227.59
 1293.94 1293.94 1293.94 1499.40 1499.40 1503.88


--------------------------------------------------------------------------------
  K point     65 =   0.187500  0.062500  0.062500  Weight =    0.004
--------------------------------------------------------------------------------

  Frequencies (cm-1) [NB: Negative implies an imaginary mode]:

  240.93  255.69  343.57  934.26  941.56 1016.37 1016.37 1046.23 1046.23
 1084.75 1117.27 1117.27 1185.68 1185.68 1258.91 1258.91 1260.79 1268.32
 1307.55 1307.55 1358.95 1487.39 1488.07 1500.65


--------------------------------------------------------------------------------
  K point     66 =   0.187500  0.062500  0.187500  Weight =    0.004
--------------------------------------------------------------------------------

  Frequencies (cm-1) [NB: Negative implies an imaginary mode]:

  289.52  336.63  458.45  932.53  932.53  954.36  954.36  983.84 1060.43
 1063.10 1063.10 1093.22 1212.21 1239.17 1255.45 1255.45 1291.40 1291.40
 1332.82 1354.18 1354.18 1473.39 1477.61 1498.86


--------------------------------------------------------------------------------
  K point     67 =   0.187500  0.062500  0.312500  Weight =    0.004
--------------------------------------------------------------------------------

  Frequencies (cm-1) [NB: Negative implies an imaginary mode]:

  403.21  458.42  594.70  815.86  842.03  933.79  956.82  970.63  972.05
 1043.04 1043.84 1078.46 1210.13 1244.37 1264.74 1319.21 1320.57 1342.10
 1344.66 1350.36 1401.34 1450.18 1457.34 1489.12


--------------------------------------------------------------------------------
  K point     68 =   0.187500  0.062500  0.437500  Weight =    0.004
--------------------------------------------------------------------------------

  Frequencies (cm-1) [NB: Negative implies an imaginary mode]:

  541.59  589.70  682.64  719.35  730.53  857.56  935.19  940.69  993.44
 1017.73 1041.85 1058.71 1216.03 1229.98 1296.96 1321.51 1346.46 1354.90
 1374.87 1388.89 1417.80 1427.53 1440.50 1469.84


--------------------------------------------------------------------------------
  K point     69 =   0.187500  0.062500  0.562500  Weight =    0.004
--------------------------------------------------------------------------------

  Frequencies (cm-1) [NB: Negative implies an imaginary mode]:

  541.59  589.70  682.64  719.35  730.53  857.56  935.19  940.69  993.44
 1017.73 1041.85 1058.71 1216.03 1229.98 1296.96 1321.51 1346.46 1354.90
 1374.87 1388.89 1417.80 1427.53 1440.50 1469.84


--------------------------------------------------------------------------------
  K point     70 =   0.187500  0.062500  0.687500  Weight =    0.004
--------------------------------------------------------------------------------

  Frequencies (cm-1) [NB: Negative implies an imaginary mode]:

  403.21  458.42  594.70  815.86  842.03  933.79  956.82  970.63  972.05
 1043.04 1043.84 1078.46 1210.13 1244.37 1264.74 1319.21 1320.57 1342.10
 1344.66 1350.36 1401.34 1450.18 1457.34 1489.12


--------------------------------------------------------------------------------
  K point     71 =   0.187500  0.062500  0.812500  Weight =    0.004
--------------------------------------------------------------------------------

  Frequencies (cm-1) [NB: Negative implies an imaginary mode]:

  289.52  336.63  458.45  932.53  932.53  954.36  954.36  983.84 1060.43
 1063.10 1063.10 1093.22 1212.21 1239.17 1255.45 1255.45 1291.40 1291.40
 1332.82 1354.18 1354.18 1473.39 1477.61 1498.86


--------------------------------------------------------------------------------
  K point     72 =   0.187500  0.062500  0.937500  Weight =    0.004
--------------------------------------------------------------------------------

  Frequencies (cm-1) [NB: Negative implies an imaginary mode]:

  240.93  255.69  343.57  934.26  941.56 1016.37 1016.37 1046.23 1046.23
 1084.75 1117.27 1117.27 1185.68 1185.68 1258.91 1258.91 1260.79 1268.32
 1307.55 1307.55 1358.95 1487.39 1488.07 1500.65


--------------------------------------------------------------------------------
  K point     73 =   0.187500  0.187500  0.062500  Weight =    0.004
--------------------------------------------------------------------------------

  Frequencies (cm-1) [NB: Negative implies an imaginary mode]:

  289.52  336.63  458.45  932.53  932.53  954.36  954.36  983.84 1060.43
 1063.10 1063.10 1093.22 1212.21 1239.17 1255.45 1255.45 1291.40 1291.40
 1332.82 1354.18 1354.18 1473.39 1477.61 1498.86


--------------------------------------------------------------------------------
  K point     74 =   0.187500  0.187500  0.187500  Weight =    0.004
--------------------------------------------------------------------------------

  Frequencies (cm-1) [NB: Negative implies an imaginary mode]:

  359.02  359.02  553.95  914.48  914.48  914.48  962.17  962.17  962.17
 1057.78 1057.78 1057.78 1259.85 1259.85 1259.85 1296.52 1296.52 1296.52
 1356.15 1356.15 1356.15 1462.78 1462.78 1498.27


--------------------------------------------------------------------------------
  K point     75 =   0.187500  0.187500  0.312500  Weight =    0.004
--------------------------------------------------------------------------------

  Frequencies (cm-1) [NB: Negative implies an imaginary mode]:

  444.80  465.05  672.54  815.33  838.75  900.62  900.62  956.56  956.56
  988.78 1057.85 1057.85 1257.84 1257.84 1311.22 1311.22 1316.45 1347.04
 1357.07 1357.07 1394.82 1440.85 1441.54 1489.15


--------------------------------------------------------------------------------
  K point     76 =   0.187500  0.187500  0.437500  Weight =    0.004
--------------------------------------------------------------------------------

  Frequencies (cm-1) [NB: Negative implies an imaginary mode]:

  568.19  583.57  702.66  704.23  790.45  893.97  893.97  897.81  947.41
  947.41 1061.30 1061.30 1254.19 1254.19 1324.66 1324.66 1355.51 1355.51
 1367.66 1383.95 1409.73 1414.42 1436.15 1468.65


--------------------------------------------------------------------------------
  K point     77 =   0.187500  0.187500  0.562500  Weight =    0.004
--------------------------------------------------------------------------------

  Frequencies (cm-1) [NB: Negative implies an imaginary mode]:

  568.19  583.57  702.66  704.23  790.45  893.97  893.97  897.81  947.41
  947.41 1061.30 1061.30 1254.19 1254.19 1324.66 1324.66 1355.51 1355.51
 1367.66 1383.95 1409.73 1414.42 1436.15 1468.65


--------------------------------------------------------------------------------
  K point     78 =   0.187500  0.187500  0.687500  Weight =    0.004
--------------------------------------------------------------------------------

  Frequencies (cm-1) [NB: Negative implies an imaginary mode]:

  444.80  465.05  672.54  815.33  838.75  900.62  900.62  956.56  956.56
  988.78 1057.85 1057.85 1257.84 1257.84 1311.22 1311.22 1316.45 1347.04
 1357.07 1357.07 1394.82 1440.85 1441.54 1489.15


--------------------------------------------------------------------------------
  K point     79 =   0.187500  0.187500  0.812500  Weight =    0.004
--------------------------------------------------------------------------------

  Frequencies (cm-1) [NB: Negative implies an imaginary mode]:

  359.02  359.02  553.95  914.48  914.48  914.48  962.17  962.17  962.17
 1057.78 1057.78 1057.78 1259.85 1259.85 1259.85 1296.52 1296.52 1296.52
 1356.15 1356.15 1356.15 1462.78 1462.78 1498.27


--------------------------------------------------------------------------------
  K point     80 =   0.187500  0.187500  0.937500  Weight =    0.004
--------------------------------------------------------------------------------

  Frequencies (cm-1) [NB: Negative implies an imaginary mode]:

  289.52  336.63  458.45  932.53  932.53  954.36  954.36  983.84 1060.43
 1063.10 1063.10 1093.22 1212.21 1239.17 1255.45 1255.45 1291.40 1291.40
 1332.82 1354.18 1354.18 1473.39 1477.61 1498.86


--------------------------------------------------------------------------------
  K point     81 =   0.187500  0.312500  0.062500  Weight =    0.004
--------------------------------------------------------------------------------

  Frequencies (cm-1) [NB: Negative implies an imaginary mode]:

  403.21  458.42  594.70  815.86  842.03  933.79  956.82  970.63  972.05
 1043.04 1043.84 1078.46 1210.13 1244.37 1264.74 1319.21 1320.57 1342.10
 1344.66 1350.36 1401.34 1450.18 1457.34 1489.12


--------------------------------------------------------------------------------
  K point     82 =   0.187500  0.312500  0.187500  Weight =    0.004
--------------------------------------------------------------------------------

  Frequencies (cm-1) [NB: Negative implies an imaginary mode]:

  444.80  465.05  672.54  815.33  838.75  900.62  900.62  956.56  956.56
  988.78 1057.85 1057.85 1257.84 1257.84 1311.22 1311.22 1316.45 1347.04
 1357.07 1357.07 1394.82 1440.85 1441.54 1489.15


--------------------------------------------------------------------------------
  K point     83 =   0.187500  0.312500  0.312500  Weight =    0.004
--------------------------------------------------------------------------------

  Frequencies (cm-1) [NB: Negative implies an imaginary mode]:

  499.79  538.61  770.60  810.24  810.24  849.09  849.09  861.59  929.33
 1014.61 1014.61 1065.78 1272.82 1307.71 1307.71 1317.27 1355.39 1355.39
 1366.14 1381.93 1381.93 1417.44 1423.88 1480.63


--------------------------------------------------------------------------------
  K point     84 =   0.187500  0.312500  0.437500  Weight =    0.004
--------------------------------------------------------------------------------

  Frequencies (cm-1) [NB: Negative implies an imaginary mode]:

  589.75  636.56  700.31  741.45  812.87  830.24  866.44  870.57  898.68
  949.76 1039.98 1058.94 1284.03 1296.00 1338.15 1352.14 1359.13 1367.15
 1368.76 1377.86 1388.50 1400.90 1425.54 1459.78


--------------------------------------------------------------------------------
  K point     85 =   0.187500  0.312500  0.562500  Weight =    0.004
--------------------------------------------------------------------------------

  Frequencies (cm-1) [NB: Negative implies an imaginary mode]:

  589.75  636.56  700.31  741.45  812.87  830.24  866.44  870.57  898.68
  949.76 1039.98 1058.94 1284.03 1296.00 1338.15 1352.14 1359.13 1367.15
 1368.76 1377.86 1388.50 1400.90 1425.54 1459.78


--------------------------------------------------------------------------------
  K point     86 =   0.187500  0.312500  0.687500  Weight =    0.004
--------------------------------------------------------------------------------

  Frequencies (cm-1) [NB: Negative implies an imaginary mode]:

  499.79  538.61  770.60  810.24  810.24  849.09  849.09  861.59  929.33
 1014.61 1014.61 1065.78 1272.82 1307.71 1307.71 1317.27 1355.39 1355.39
 1366.14 1381.93 1381.93 1417.44 1423.88 1480.63


--------------------------------------------------------------------------------
  K point     87 =   0.187500  0.312500  0.812500  Weight =    0.004
--------------------------------------------------------------------------------

  Frequencies (cm-1) [NB: Negative implies an imaginary mode]:

  444.80  465.05  672.54  815.33  838.75  900.62  900.62  956.56  956.56
  988.78 1057.85 1057.85 1257.84 1257.84 1311.22 1311.22 1316.45 1347.04
 1357.07 1357.07 1394.82 1440.85 1441.54 1489.15


--------------------------------------------------------------------------------
  K point     88 =   0.187500  0.312500  0.937500  Weight =    0.004
--------------------------------------------------------------------------------

  Frequencies (cm-1) [NB: Negative implies an imaginary mode]:

  403.21  458.42  594.70  815.86  842.03  933.79  956.82  970.63  972.05
 1043.04 1043.84 1078.46 1210.13 1244.37 1264.74 1319.21 1320.57 1342.10
 1344.66 1350.36 1401.34 1450.18 1457.34 1489.12


--------------------------------------------------------------------------------
  K point     89 =   0.187500  0.437500  0.062500  Weight =    0.004
--------------------------------------------------------------------------------

  Frequencies (cm-1) [NB: Negative implies an imaginary mode]:

  541.59  589.70  682.64  719.35  730.53  857.56  935.19  940.69  993.44
 1017.73 1041.85 1058.71 1216.03 1229.98 1296.96 1321.51 1346.46 1354.90
 1374.87 1388.89 1417.80 1427.53 1440.50 1469.84


--------------------------------------------------------------------------------
  K point     90 =   0.187500  0.437500  0.187500  Weight =    0.004
--------------------------------------------------------------------------------

  Frequencies (cm-1) [NB: Negative implies an imaginary mode]:

  568.19  583.57  702.66  704.23  790.45  893.97  893.97  897.81  947.41
  947.41 1061.30 1061.30 1254.19 1254.19 1324.66 1324.66 1355.51 1355.51
 1367.66 1383.95 1409.73 1414.42 1436.15 1468.65


--------------------------------------------------------------------------------
  K point     91 =   0.187500  0.437500  0.312500  Weight =    0.004
--------------------------------------------------------------------------------

  Frequencies (cm-1) [NB: Negative implies an imaginary mode]:

  589.75  636.56  700.31  741.45  812.87  830.24  866.44  870.57  898.68
  949.76 1039.98 1058.94 1284.03 1296.00 1338.15 1352.14 1359.13 1367.15
 1368.76 1377.86 1388.50 1400.90 1425.54 1459.78


--------------------------------------------------------------------------------
  K point     92 =   0.187500  0.437500  0.437500  Weight =    0.004
--------------------------------------------------------------------------------

  Frequencies (cm-1) [NB: Negative implies an imaginary mode]:

  642.52  710.55  722.12  722.12  768.19  790.88  790.88  845.28  938.93
  998.50  998.50 1036.61 1309.08 1331.62 1331.62 1356.89 1361.85 1369.83
 1369.83 1385.19 1386.55 1407.90 1407.90 1439.73


--------------------------------------------------------------------------------
  K point     93 =   0.187500  0.437500  0.562500  Weight =    0.004
--------------------------------------------------------------------------------

  Frequencies (cm-1) [NB: Negative implies an imaginary mode]:

  642.52  710.55  722.12  722.12  768.19  790.88  790.88  845.28  938.93
  998.50  998.50 1036.61 1309.08 1331.62 1331.62 1356.89 1361.85 1369.83
 1369.83 1385.19 1386.55 1407.90 1407.90 1439.73


--------------------------------------------------------------------------------
  K point     94 =   0.187500  0.437500  0.687500  Weight =    0.004
--------------------------------------------------------------------------------

  Frequencies (cm-1) [NB: Negative implies an imaginary mode]:

  589.75  636.56  700.31  741.45  812.87  830.24  866.44  870.57  898.68
  949.76 1039.98 1058.94 1284.03 1296.00 1338.15 1352.14 1359.13 1367.15
 1368.76 1377.86 1388.50 1400.90 1425.54 1459.78


--------------------------------------------------------------------------------
  K point     95 =   0.187500  0.437500  0.812500  Weight =    0.004
--------------------------------------------------------------------------------

  Frequencies (cm-1) [NB: Negative implies an imaginary mode]:

  568.19  583.57  702.66  704.23  790.45  893.97  893.97  897.81  947.41
  947.41 1061.30 1061.30 1254.19 1254.19 1324.66 1324.66 1355.51 1355.51
 1367.66 1383.95 1409.73 1414.42 1436.15 1468.65


--------------------------------------------------------------------------------
  K point     96 =   0.187500  0.437500  0.937500  Weight =    0.004
--------------------------------------------------------------------------------

  Frequencies (cm-1) [NB: Negative implies an imaginary mode]:

  541.59  589.70  682.64  719.35  730.53  857.56  935.19  940.69  993.44
 1017.73 1041.85 1058.71 1216.03 1229.98 1296.96 1321.51 1346.46 1354.90
 1374.87 1388.89 1417.80 1427.53 1440.50 1469.84


--------------------------------------------------------------------------------
  K point     97 =   0.187500  0.562500  0.062500  Weight =    0.004
--------------------------------------------------------------------------------

  Frequencies (cm-1) [NB: Negative implies an imaginary mode]:

  541.59  589.70  682.64  719.35  730.53  857.56  935.19  940.69  993.44
 1017.73 1041.85 1058.71 1216.03 1229.98 1296.96 1321.51 1346.46 1354.90
 1374.87 1388.89 1417.80 1427.53 1440.50 1469.84


--------------------------------------------------------------------------------
  K point     98 =   0.187500  0.562500  0.187500  Weight =    0.004
--------------------------------------------------------------------------------

  Frequencies (cm-1) [NB: Negative implies an imaginary mode]:

  568.19  583.57  702.66  704.23  790.45  893.97  893.97  897.81  947.41
  947.41 1061.30 1061.30 1254.19 1254.19 1324.66 1324.66 1355.51 1355.51
 1367.66 1383.95 1409.73 1414.42 1436.15 1468.65


--------------------------------------------------------------------------------
  K point     99 =   0.187500  0.562500  0.312500  Weight =    0.004
--------------------------------------------------------------------------------

  Frequencies (cm-1) [NB: Negative implies an imaginary mode]:

  589.75  636.56  700.31  741.45  812.87  830.24  866.44  870.57  898.68
  949.76 1039.98 1058.94 1284.03 1296.00 1338.15 1352.14 1359.13 1367.15
 1368.76 1377.86 1388.50 1400.90 1425.54 1459.78


--------------------------------------------------------------------------------
  K point    100 =   0.187500  0.562500  0.437500  Weight =    0.004
--------------------------------------------------------------------------------

  Frequencies (cm-1) [NB: Negative implies an imaginary mode]:

  642.52  710.55  722.12  722.12  768.19  790.88  790.88  845.28  938.93
  998.50  998.50 1036.61 1309.08 1331.62 1331.62 1356.89 1361.85 1369.83
 1369.83 1385.19 1386.55 1407.90 1407.90 1439.73


--------------------------------------------------------------------------------
  K point    101 =   0.187500  0.562500  0.562500  Weight =    0.004
--------------------------------------------------------------------------------

  Frequencies (cm-1) [NB: Negative implies an imaginary mode]:

  642.52  710.55  722.12  722.12  768.19  790.88  790.88  845.28  938.93
  998.50  998.50 1036.61 1309.08 1331.62 1331.62 1356.89 1361.85 1369.83
 1369.83 1385.19 1386.55 1407.90 1407.90 1439.73


--------------------------------------------------------------------------------
  K point    102 =   0.187500  0.562500  0.687500  Weight =    0.004
--------------------------------------------------------------------------------

  Frequencies (cm-1) [NB: Negative implies an imaginary mode]:

  589.75  636.56  700.31  741.45  812.87  830.24  866.44  870.57  898.68
  949.76 1039.98 1058.94 1284.03 1296.00 1338.15 1352.14 1359.13 1367.15
 1368.76 1377.86 1388.50 1400.90 1425.54 1459.78


--------------------------------------------------------------------------------
  K point    103 =   0.187500  0.562500  0.812500  Weight =    0.004
--------------------------------------------------------------------------------

  Frequencies (cm-1) [NB: Negative implies an imaginary mode]:

  568.19  583.57  702.66  704.23  790.45  893.97  893.97  897.81  947.41
  947.41 1061.30 1061.30 1254.19 1254.19 1324.66 1324.66 1355.51 1355.51
 1367.66 1383.95 1409.73 1414.42 1436.15 1468.65


--------------------------------------------------------------------------------
  K point    104 =   0.187500  0.562500  0.937500  Weight =    0.004
--------------------------------------------------------------------------------

  Frequencies (cm-1) [NB: Negative implies an imaginary mode]:

  541.59  589.70  682.64  719.35  730.53  857.56  935.19  940.69  993.44
 1017.73 1041.85 1058.71 1216.03 1229.98 1296.96 1321.51 1346.46 1354.90
 1374.87 1388.89 1417.80 1427.53 1440.50 1469.84


--------------------------------------------------------------------------------
  K point    105 =   0.187500  0.687500  0.062500  Weight =    0.004
--------------------------------------------------------------------------------

  Frequencies (cm-1) [NB: Negative implies an imaginary mode]:

  403.21  458.42  594.70  815.86  842.03  933.79  956.82  970.63  972.05
 1043.04 1043.84 1078.46 1210.13 1244.37 1264.74 1319.21 1320.57 1342.10
 1344.66 1350.36 1401.34 1450.18 1457.34 1489.12


--------------------------------------------------------------------------------
  K point    106 =   0.187500  0.687500  0.187500  Weight =    0.004
--------------------------------------------------------------------------------

  Frequencies (cm-1) [NB: Negative implies an imaginary mode]:

  444.80  465.05  672.54  815.33  838.75  900.62  900.62  956.56  956.56
[...]
  Zero point energy            =        1.633038 eV
  Entropy                      =        0.000002 eV/K
                               =        0.218366 J/(mol.K)
  Helmholtz free-energy        =      -57.258416 eV
                               =    -5524.561372 kJmol-1
  Free energy (equipartition)  =      -58.405822 eV
  - T*S       (equipartition)  =        0.320137 eV
  Uvib        (equipartition)  =        0.165453 eV
  Mean kinetic energy          =        0.816589 eV
  Heat capacity - const volume =        0.000007 eV/K
                               =        0.700521 J/(mol.K)
--------------------------------------------------------------------------------
  Phonon properties (per mole of unit cells): Temperature =     90.000 K
--------------------------------------------------------------------------------
  Zero point energy            =        1.633038 eV
  Entropy                      =        0.000003 eV/K
                               =        0.318363 J/(mol.K)
  Helmholtz free-energy        =      -57.258443 eV
                               =    -5524.564035 kJmol-1
  Free energy (equipartition)  =      -58.367047 eV
  - T*S       (equipartition)  =        0.338231 eV
  Uvib        (equipartition)  =        0.186134 eV
  Mean kinetic energy          =        0.816633 eV
  Heat capacity - const volume =        0.000011 eV/K
                               =        1.018039 J/(mol.K)
--------------------------------------------------------------------------------
  Phonon properties (per mole of unit cells): Temperature =    100.000 K
--------------------------------------------------------------------------------
  Zero point energy            =        1.633038 eV
  Entropy                      =        0.000005 eV/K
                               =        0.446036 J/(mol.K)
  Helmholtz free-energy        =      -57.258483 eV
                               =    -5524.567832 kJmol-1
  Free energy (equipartition)  =      -58.330575 eV
  - T*S       (equipartition)  =        0.354022 eV
  Uvib        (equipartition)  =        0.206816 eV
  Mean kinetic energy          =        0.816696 eV
  Heat capacity - const volume =        0.000015 eV/K
                               =        1.429797 J/(mol.K)
--------------------------------------------------------------------------------
  Phonon properties (per mole of unit cells): Temperature =    110.000 K
--------------------------------------------------------------------------------
  Zero point energy            =        1.633038 eV
  Entropy                      =        0.000006 eV/K
                               =        0.605862 J/(mol.K)
  Helmholtz free-energy        =      -57.258537 eV
                               =    -5524.573063 kJmol-1
  Free energy (equipartition)  =      -58.296174 eV
  - T*S       (equipartition)  =        0.367741 eV
  Uvib        (equipartition)  =        0.227498 eV
  Mean kinetic energy          =        0.816783 eV
  Heat capacity - const volume =        0.000020 eV/K
                               =        1.952048 J/(mol.K)
--------------------------------------------------------------------------------
  Phonon properties (per mole of unit cells): Temperature =    120.000 K
--------------------------------------------------------------------------------
  Zero point energy            =        1.633038 eV
  Entropy                      =        0.000008 eV/K
                               =        0.802540 J/(mol.K)
  Helmholtz free-energy        =      -57.258610 eV
                               =    -5524.580072 kJmol-1
  Free energy (equipartition)  =      -58.263655 eV
  - T*S       (equipartition)  =        0.379578 eV
  Uvib        (equipartition)  =        0.248179 eV
  Mean kinetic energy          =        0.816900 eV
  Heat capacity - const volume =        0.000027 eV/K
                               =        2.600265 J/(mol.K)
--------------------------------------------------------------------------------
  Phonon properties (per mole of unit cells): Temperature =    130.000 K
--------------------------------------------------------------------------------
  Zero point energy            =        1.633038 eV
  Entropy                      =        0.000011 eV/K
                               =        1.040808 J/(mol.K)
  Helmholtz free-energy        =      -57.258705 eV
                               =    -5524.589252 kJmol-1
  Free energy (equipartition)  =      -58.232863 eV
  - T*S       (equipartition)  =        0.389689 eV
  Uvib        (equipartition)  =        0.268861 eV
  Mean kinetic energy          =        0.817055 eV
  Heat capacity - const volume =        0.000035 eV/K
                               =        3.388016 J/(mol.K)
--------------------------------------------------------------------------------
  Phonon properties (per mole of unit cells): Temperature =    140.000 K
--------------------------------------------------------------------------------
  Zero point energy            =        1.633038 eV
  Entropy                      =        0.000014 eV/K
                               =        1.325264 J/(mol.K)
  Helmholtz free-energy        =      -57.258827 eV
                               =    -5524.601042 kJmol-1
  Free energy (equipartition)  =      -58.203662 eV
  - T*S       (equipartition)  =        0.398207 eV
  Uvib        (equipartition)  =        0.289542 eV
  Mean kinetic energy          =        0.817254 eV
  Heat capacity - const volume =        0.000045 eV/K
                               =        4.326193 J/(mol.K)
--------------------------------------------------------------------------------
  Phonon properties (per mole of unit cells): Temperature =    150.000 K
--------------------------------------------------------------------------------
  Zero point energy            =        1.633038 eV
  Entropy                      =        0.000017 eV/K
                               =        1.660202 J/(mol.K)
  Helmholtz free-energy        =      -57.258981 eV
                               =    -5524.615926 kJmol-1
  Free energy (equipartition)  =      -58.175941 eV
  - T*S       (equipartition)  =        0.405247 eV
  Uvib        (equipartition)  =        0.310224 eV
  Mean kinetic energy          =        0.817506 eV
  Heat capacity - const volume =        0.000056 eV/K
                               =        5.422630 J/(mol.K)
--------------------------------------------------------------------------------
  Phonon properties (per mole of unit cells): Temperature =    160.000 K
--------------------------------------------------------------------------------
  Zero point energy            =        1.633038 eV
  Entropy                      =        0.000021 eV/K
                               =        2.049490 J/(mol.K)
  Helmholtz free-energy        =      -57.259173 eV
                               =    -5524.634427 kJmol-1
  Free energy (equipartition)  =      -58.149599 eV
  - T*S       (equipartition)  =        0.410908 eV
  Uvib        (equipartition)  =        0.330906 eV
  Mean kinetic energy          =        0.817819 eV
  Heat capacity - const volume =        0.000069 eV/K
                               =        6.682044 J/(mol.K)
--------------------------------------------------------------------------------
  Phonon properties (per mole of unit cells): Temperature =    170.000 K
--------------------------------------------------------------------------------
  Zero point energy            =        1.633038 eV
  Entropy                      =        0.000026 eV/K
                               =        2.496487 J/(mol.K)
  Helmholtz free-energy        =      -57.259408 eV
                               =    -5524.657108 kJmol-1
  Free energy (equipartition)  =      -58.124550 eV
  - T*S       (equipartition)  =        0.415275 eV
  Uvib        (equipartition)  =        0.351587 eV
  Mean kinetic energy          =        0.818201 eV
  Heat capacity - const volume =        0.000084 eV/K
                               =        8.106171 J/(mol.K)
--------------------------------------------------------------------------------
  Phonon properties (per mole of unit cells): Temperature =    180.000 K
--------------------------------------------------------------------------------
  Zero point energy            =        1.633038 eV
  Entropy                      =        0.000031 eV/K
                               =        3.003997 J/(mol.K)
  Helmholtz free-energy        =      -57.259693 eV
                               =    -5524.684559 kJmol-1
  Free energy (equipartition)  =      -58.100719 eV
  - T*S       (equipartition)  =        0.418424 eV
  Uvib        (equipartition)  =        0.372269 eV
  Mean kinetic energy          =        0.818662 eV
  Heat capacity - const volume =        0.000100 eV/K
                               =        9.694029 J/(mol.K)
--------------------------------------------------------------------------------
  Phonon properties (per mole of unit cells): Temperature =    190.000 K
--------------------------------------------------------------------------------
  Zero point energy            =        1.633038 eV
  Entropy                      =        0.000037 eV/K
                               =        3.574248 J/(mol.K)
  Helmholtz free-energy        =      -57.260033 eV
                               =    -5524.717397 kJmol-1
  Free energy (equipartition)  =      -58.078037 eV
  - T*S       (equipartition)  =        0.420424 eV
  Uvib        (equipartition)  =        0.392951 eV
  Mean kinetic energy          =        0.819209 eV
  Heat capacity - const volume =        0.000119 eV/K
                               =       11.442218 J/(mol.K)
--------------------------------------------------------------------------------
  Phonon properties (per mole of unit cells): Temperature =    200.000 K
--------------------------------------------------------------------------------
  Zero point energy            =        1.633038 eV
  Entropy                      =        0.000044 eV/K
                               =        4.208899 J/(mol.K)
  Helmholtz free-energy        =      -57.260436 eV
                               =    -5524.756258 kJmol-1
  Free energy (equipartition)  =      -58.056445 eV
  - T*S       (equipartition)  =        0.421335 eV
  Uvib        (equipartition)  =        0.413632 eV
  Mean kinetic energy          =        0.819851 eV
  Heat capacity - const volume =        0.000138 eV/K
                               =       13.345243 J/(mol.K)
--------------------------------------------------------------------------------
  Phonon properties (per mole of unit cells): Temperature =    210.000 K
--------------------------------------------------------------------------------
  Zero point energy            =        1.633038 eV
  Entropy                      =        0.000051 eV/K
                               =        4.909050 J/(mol.K)
  Helmholtz free-energy        =      -57.260908 eV
                               =    -5524.801793 kJmol-1
  Free energy (equipartition)  =      -58.035887 eV
  - T*S       (equipartition)  =        0.421212 eV
  Uvib        (equipartition)  =        0.434314 eV
  Mean kinetic energy          =        0.820595 eV
  Heat capacity - const volume =        0.000160 eV/K
                               =       15.395830 J/(mol.K)
--------------------------------------------------------------------------------
  Phonon properties (per mole of unit cells): Temperature =    220.000 K
--------------------------------------------------------------------------------
  Zero point energy            =        1.633038 eV
  Entropy                      =        0.000059 eV/K
                               =        5.675275 J/(mol.K)
  Helmholtz free-energy        =      -57.261456 eV
                               =    -5524.854660 kJmol-1
  Free energy (equipartition)  =      -58.016314 eV
  - T*S       (equipartition)  =        0.420103 eV
  Uvib        (equipartition)  =        0.454995 eV
  Mean kinetic energy          =        0.821449 eV
  Heat capacity - const volume =        0.000182 eV/K
                               =       17.585231 J/(mol.K)
--------------------------------------------------------------------------------
  Phonon properties (per mole of unit cells): Temperature =    230.000 K
--------------------------------------------------------------------------------
  Zero point energy            =        1.633038 eV
  Entropy                      =        0.000067 eV/K
                               =        6.507656 J/(mol.K)
  Helmholtz free-energy        =      -57.262086 eV
                               =    -5524.915519 kJmol-1
  Free energy (equipartition)  =      -57.997681 eV
  - T*S       (equipartition)  =        0.418054 eV
  Uvib        (equipartition)  =        0.475677 eV
  Mean kinetic energy          =        0.822419 eV
  Heat capacity - const volume =        0.000206 eV/K
                               =       19.903527 J/(mol.K)
--------------------------------------------------------------------------------
  Phonon properties (per mole of unit cells): Temperature =    240.000 K
--------------------------------------------------------------------------------
  Zero point energy            =        1.633038 eV
  Entropy                      =        0.000077 eV/K
                               =        7.405822 J/(mol.K)
  Helmholtz free-energy        =      -57.262807 eV
                               =    -5524.985032 kJmol-1
  Free energy (equipartition)  =      -57.979948 eV
  - T*S       (equipartition)  =        0.415106 eV
  Uvib        (equipartition)  =        0.496359 eV
  Mean kinetic energy          =        0.823514 eV
  Heat capacity - const volume =        0.000232 eV/K
                               =       22.339902 J/(mol.K)
--------------------------------------------------------------------------------
  Phonon properties (per mole of unit cells): Temperature =    250.000 K
--------------------------------------------------------------------------------
  Zero point energy            =        1.633038 eV
  Entropy                      =        0.000087 eV/K
                               =        8.368990 J/(mol.K)
  Helmholtz free-energy        =      -57.263624 eV
                               =    -5525.063853 kJmol-1
  Free energy (equipartition)  =      -57.963077 eV
  - T*S       (equipartition)  =        0.411295 eV
  Uvib        (equipartition)  =        0.517040 eV
  Mean kinetic energy          =        0.824737 eV
  Heat capacity - const volume =        0.000258 eV/K
                               =       24.882912 J/(mol.K)
--------------------------------------------------------------------------------
  Phonon properties (per mole of unit cells): Temperature =    260.000 K
--------------------------------------------------------------------------------
  Zero point energy            =        1.633038 eV
  Entropy                      =        0.000097 eV/K
                               =        9.396016 J/(mol.K)
  Helmholtz free-energy        =      -57.264544 eV
                               =    -5525.152625 kJmol-1
  Free energy (equipartition)  =      -57.947033 eV
  - T*S       (equipartition)  =        0.406657 eV
  Uvib        (equipartition)  =        0.537722 eV
  Mean kinetic energy          =        0.826094 eV
  Heat capacity - const volume =        0.000285 eV/K
                               =       27.520730 J/(mol.K)
--------------------------------------------------------------------------------
  Phonon properties (per mole of unit cells): Temperature =    270.000 K
--------------------------------------------------------------------------------
  Zero point energy            =        1.633038 eV
  Entropy                      =        0.000109 eV/K
                               =       10.485432 J/(mol.K)
  Helmholtz free-energy        =      -57.265574 eV
                               =    -5525.251981 kJmol-1
  Free energy (equipartition)  =      -57.931786 eV
  - T*S       (equipartition)  =        0.401223 eV
  Uvib        (equipartition)  =        0.558403 eV
  Mean kinetic energy          =        0.827590 eV
  Heat capacity - const volume =        0.000313 eV/K
                               =       30.241370 J/(mol.K)
--------------------------------------------------------------------------------
  Phonon properties (per mole of unit cells): Temperature =    280.000 K
--------------------------------------------------------------------------------
  Zero point energy            =        1.633038 eV
  Entropy                      =        0.000121 eV/K
                               =       11.635495 J/(mol.K)
  Helmholtz free-energy        =      -57.266719 eV
                               =    -5525.362536 kJmol-1
  Free energy (equipartition)  =      -57.917304 eV
  - T*S       (equipartition)  =        0.395024 eV
  Uvib        (equipartition)  =        0.579085 eV
  Mean kinetic energy          =        0.829230 eV
  Heat capacity - const volume =        0.000342 eV/K
                               =       33.032883 J/(mol.K)
--------------------------------------------------------------------------------
  Phonon properties (per mole of unit cells): Temperature =    290.000 K
--------------------------------------------------------------------------------
  Zero point energy            =        1.633038 eV
  Entropy                      =        0.000133 eV/K
                               =       12.844230 J/(mol.K)
  Helmholtz free-energy        =      -57.267987 eV
                               =    -5525.484886 kJmol-1
  Free energy (equipartition)  =      -57.903561 eV
  - T*S       (equipartition)  =        0.388085 eV
  Uvib        (equipartition)  =        0.599767 eV
  Mean kinetic energy          =        0.831015 eV
  Heat capacity - const volume =        0.000372 eV/K
                               =       35.883528 J/(mol.K)
--------------------------------------------------------------------------------
  Phonon properties (per mole of unit cells): Temperature =    300.000 K
--------------------------------------------------------------------------------
  Zero point energy            =        1.633038 eV
  Entropy                      =        0.000146 eV/K
                               =       14.109471 J/(mol.K)
  Helmholtz free-energy        =      -57.269384 eV
                               =    -5525.619609 kJmol-1
  Free energy (equipartition)  =      -57.890531 eV
  - T*S       (equipartition)  =        0.380433 eV
  Uvib        (equipartition)  =        0.620448 eV
  Mean kinetic energy          =        0.832950 eV
  Heat capacity - const volume =        0.000402 eV/K
                               =       38.781916 J/(mol.K)
--------------------------------------------------------------------------------

  Time to end of properties =      13.9322 seconds


  Peak dynamic memory used =       1.93 MB 


  Timing analysis for GULP :

--------------------------------------------------------------------------------
  Task / Subroutine                                          Time (Seconds)
--------------------------------------------------------------------------------
  Calculation of real space energy and derivatives                0.0038
  Calculation of Brenner energy and derivatives                  13.6303
  Calculation of phonons                                         13.8297
  Calculation of matrix inversion                                 0.0001
  Disk read/write operations to scratch files                     0.0433
--------------------------------------------------------------------------------
  Total CPU time                                                 13.9323
--------------------------------------------------------------------------------


  Job Finished at 13:02.37 31st July       2020                               

