********************************************************************************
*                       GENERAL UTILITY LATTICE PROGRAM                        *
*                                 Julian Gale                                  *
*                       Curtin Institute for Computation                       *
*                           Department of Chemistry                            *
*                    Curtin University, Western Australia                      *
********************************************************************************
* Version = 5.1.0 * Last modified = 25th January 2020                          *
********************************************************************************
*  single       - perform a single point run                                   *
*  property     - calculate properties for final geometry                      *
*  phonon       - calculate phonons for final geometry                         *
********************************************************************************
* ASE calculation                                                              *
********************************************************************************


  Job Started  at 18:11.02 14th August     2020                               

  Number of CPUs =     1


  Total number of configurations input =      1

********************************************************************************
*  Input for Configuration =   1                                               *
********************************************************************************

  Formula = C8                                                          

  Number of irreducible atoms/shells =       8


  Total number atoms/shells =       8

  Dimensionality = 3               :  Bulk   



  Cartesian lattice vectors (Angstroms) :

        3.605349    0.000000    0.000000
        0.000000    3.605349    0.000000
        0.000000    0.000000    3.605349

  Cell parameters (Angstroms/Degrees):

  a =       3.6053    alpha =  90.0000
  b =       3.6053    beta  =  90.0000
  c =       3.6053    gamma =  90.0000

  Initial cell volume =          46.864278 Angs**3

  Shrinking factors =      8     8     8

  Temperature of configuration =  10.00     K 

  Pressure of configuration =         0.000 GPa 

  Fractional coordinates of asymmetric unit :

--------------------------------------------------------------------------------
   No.  Atomic       x           y          z         Charge      Occupancy
        Label      (Frac)      (Frac)     (Frac)        (e)         (Frac)  
--------------------------------------------------------------------------------
      1 C     c    0.000000    0.000000    0.000000     0.00000    1.000000    
      2 C     c    0.000000    0.500000    0.500000     0.00000    1.000000    
      3 C     c    0.500000    0.500000    0.000000     0.00000    1.000000    
      4 C     c    0.500000    0.000000    0.500000     0.00000    1.000000    
      5 C     c    0.750000    0.250000    0.750000     0.00000    1.000000    
      6 C     c    0.250000    0.250000    0.250000     0.00000    1.000000    
      7 C     c    0.250000    0.750000    0.750000     0.00000    1.000000    
      8 C     c    0.750000    0.750000    0.250000     0.00000    1.000000    
--------------------------------------------------------------------------------


  Brillouin zone sampling points :

--------------------------------------------------------------------------------
  Point number          x          y          z            Weight
--------------------------------------------------------------------------------
        1           0.062500   0.062500   0.062500     0.00390625
        2           0.062500   0.062500   0.187500     0.00390625
        3           0.062500   0.062500   0.312500     0.00390625
        4           0.062500   0.062500   0.437500     0.00390625
        5           0.062500   0.062500   0.562500     0.00390625
        6           0.062500   0.062500   0.687500     0.00390625
        7           0.062500   0.062500   0.812500     0.00390625
        8           0.062500   0.062500   0.937500     0.00390625
        9           0.062500   0.187500   0.062500     0.00390625
       10           0.062500   0.187500   0.187500     0.00390625
       11           0.062500   0.187500   0.312500     0.00390625
       12           0.062500   0.187500   0.437500     0.00390625
       13           0.062500   0.187500   0.562500     0.00390625
       14           0.062500   0.187500   0.687500     0.00390625
       15           0.062500   0.187500   0.812500     0.00390625
       16           0.062500   0.187500   0.937500     0.00390625
       17           0.062500   0.312500   0.062500     0.00390625
       18           0.062500   0.312500   0.187500     0.00390625
       19           0.062500   0.312500   0.312500     0.00390625
       20           0.062500   0.312500   0.437500     0.00390625
       21           0.062500   0.312500   0.562500     0.00390625
       22           0.062500   0.312500   0.687500     0.00390625
       23           0.062500   0.312500   0.812500     0.00390625
       24           0.062500   0.312500   0.937500     0.00390625
       25           0.062500   0.437500   0.062500     0.00390625
       26           0.062500   0.437500   0.187500     0.00390625
       27           0.062500   0.437500   0.312500     0.00390625
       28           0.062500   0.437500   0.437500     0.00390625
       29           0.062500   0.437500   0.562500     0.00390625
       30           0.062500   0.437500   0.687500     0.00390625
       31           0.062500   0.437500   0.812500     0.00390625
       32           0.062500   0.437500   0.937500     0.00390625
       33           0.062500   0.562500   0.062500     0.00390625
       34           0.062500   0.562500   0.187500     0.00390625
       35           0.062500   0.562500   0.312500     0.00390625
       36           0.062500   0.562500   0.437500     0.00390625
       37           0.062500   0.562500   0.562500     0.00390625
       38           0.062500   0.562500   0.687500     0.00390625
       39           0.062500   0.562500   0.812500     0.00390625
       40           0.062500   0.562500   0.937500     0.00390625
       41           0.062500   0.687500   0.062500     0.00390625
       42           0.062500   0.687500   0.187500     0.00390625
       43           0.062500   0.687500   0.312500     0.00390625
       44           0.062500   0.687500   0.437500     0.00390625
       45           0.062500   0.687500   0.562500     0.00390625
       46           0.062500   0.687500   0.687500     0.00390625
       47           0.062500   0.687500   0.812500     0.00390625
       48           0.062500   0.687500   0.937500     0.00390625
       49           0.062500   0.812500   0.062500     0.00390625
       50           0.062500   0.812500   0.187500     0.00390625
       51           0.062500   0.812500   0.312500     0.00390625
       52           0.062500   0.812500   0.437500     0.00390625
       53           0.062500   0.812500   0.562500     0.00390625
       54           0.062500   0.812500   0.687500     0.00390625
       55           0.062500   0.812500   0.812500     0.00390625
       56           0.062500   0.812500   0.937500     0.00390625
       57           0.062500   0.937500   0.062500     0.00390625
       58           0.062500   0.937500   0.187500     0.00390625
       59           0.062500   0.937500   0.312500     0.00390625
       60           0.062500   0.937500   0.437500     0.00390625
       61           0.062500   0.937500   0.562500     0.00390625
       62           0.062500   0.937500   0.687500     0.00390625
       63           0.062500   0.937500   0.812500     0.00390625
       64           0.062500   0.937500   0.937500     0.00390625
       65           0.187500   0.062500   0.062500     0.00390625
       66           0.187500   0.062500   0.187500     0.00390625
       67           0.187500   0.062500   0.312500     0.00390625
       68           0.187500   0.062500   0.437500     0.00390625
       69           0.187500   0.062500   0.562500     0.00390625
       70           0.187500   0.062500   0.687500     0.00390625
       71           0.187500   0.062500   0.812500     0.00390625
       72           0.187500   0.062500   0.937500     0.00390625
       73           0.187500   0.187500   0.062500     0.00390625
       74           0.187500   0.187500   0.187500     0.00390625
       75           0.187500   0.187500   0.312500     0.00390625
       76           0.187500   0.187500   0.437500     0.00390625
       77           0.187500   0.187500   0.562500     0.00390625
       78           0.187500   0.187500   0.687500     0.00390625
       79           0.187500   0.187500   0.812500     0.00390625
       80           0.187500   0.187500   0.937500     0.00390625
       81           0.187500   0.312500   0.062500     0.00390625
       82           0.187500   0.312500   0.187500     0.00390625
       83           0.187500   0.312500   0.312500     0.00390625
       84           0.187500   0.312500   0.437500     0.00390625
       85           0.187500   0.312500   0.562500     0.00390625
       86           0.187500   0.312500   0.687500     0.00390625
       87           0.187500   0.312500   0.812500     0.00390625
       88           0.187500   0.312500   0.937500     0.00390625
       89           0.187500   0.437500   0.062500     0.00390625
       90           0.187500   0.437500   0.187500     0.00390625
       91           0.187500   0.437500   0.312500     0.00390625
       92           0.187500   0.437500   0.437500     0.00390625
       93           0.187500   0.437500   0.562500     0.00390625
       94           0.187500   0.437500   0.687500     0.00390625
       95           0.187500   0.437500   0.812500     0.00390625
       96           0.187500   0.437500   0.937500     0.00390625
       97           0.187500   0.562500   0.062500     0.00390625
       98           0.187500   0.562500   0.187500     0.00390625
       99           0.187500   0.562500   0.312500     0.00390625
      100           0.187500   0.562500   0.437500     0.00390625
      101           0.187500   0.562500   0.562500     0.00390625
      102           0.187500   0.562500   0.687500     0.00390625
      103           0.187500   0.562500   0.812500     0.00390625
      104           0.187500   0.562500   0.937500     0.00390625
      105           0.187500   0.687500   0.062500     0.00390625
      106           0.187500   0.687500   0.187500     0.00390625
      107           0.187500   0.687500   0.312500     0.00390625
      108           0.187500   0.687500   0.437500     0.00390625
      109           0.187500   0.687500   0.562500     0.00390625
      110           0.187500   0.687500   0.687500     0.00390625
      111           0.187500   0.687500   0.812500     0.00390625
      112           0.187500   0.687500   0.937500     0.00390625
      113           0.187500   0.812500   0.062500     0.00390625
      114           0.187500   0.812500   0.187500     0.00390625
      115           0.187500   0.812500   0.312500     0.00390625
      116           0.187500   0.812500   0.437500     0.00390625
      117           0.187500   0.812500   0.562500     0.00390625
      118           0.187500   0.812500   0.687500     0.00390625
      119           0.187500   0.812500   0.812500     0.00390625
      120           0.187500   0.812500   0.937500     0.00390625
      121           0.187500   0.937500   0.062500     0.00390625
      122           0.187500   0.937500   0.187500     0.00390625
      123           0.187500   0.937500   0.312500     0.00390625
      124           0.187500   0.937500   0.437500     0.00390625
      125           0.187500   0.937500   0.562500     0.00390625
      126           0.187500   0.937500   0.687500     0.00390625
      127           0.187500   0.937500   0.812500     0.00390625
      128           0.187500   0.937500   0.937500     0.00390625
      129           0.312500   0.062500   0.062500     0.00390625
      130           0.312500   0.062500   0.187500     0.00390625
      131           0.312500   0.062500   0.312500     0.00390625
      132           0.312500   0.062500   0.437500     0.00390625
      133           0.312500   0.062500   0.562500     0.00390625
      134           0.312500   0.062500   0.687500     0.00390625
      135           0.312500   0.062500   0.812500     0.00390625
      136           0.312500   0.062500   0.937500     0.00390625
      137           0.312500   0.187500   0.062500     0.00390625
      138           0.312500   0.187500   0.187500     0.00390625
      139           0.312500   0.187500   0.312500     0.00390625
      140           0.312500   0.187500   0.437500     0.00390625
      141           0.312500   0.187500   0.562500     0.00390625
      142           0.312500   0.187500   0.687500     0.00390625
      143           0.312500   0.187500   0.812500     0.00390625
      144           0.312500   0.187500   0.937500     0.00390625
      145           0.312500   0.312500   0.062500     0.00390625
      146           0.312500   0.312500   0.187500     0.00390625
      147           0.312500   0.312500   0.312500     0.00390625
      148           0.312500   0.312500   0.437500     0.00390625
      149           0.312500   0.312500   0.562500     0.00390625
      150           0.312500   0.312500   0.687500     0.00390625
      151           0.312500   0.312500   0.812500     0.00390625
      152           0.312500   0.312500   0.937500     0.00390625
      153           0.312500   0.437500   0.062500     0.00390625
      154           0.312500   0.437500   0.187500     0.00390625
      155           0.312500   0.437500   0.312500     0.00390625
      156           0.312500   0.437500   0.437500     0.00390625
      157           0.312500   0.437500   0.562500     0.00390625
      158           0.312500   0.437500   0.687500     0.00390625
      159           0.312500   0.437500   0.812500     0.00390625
      160           0.312500   0.437500   0.937500     0.00390625
      161           0.312500   0.562500   0.062500     0.00390625
      162           0.312500   0.562500   0.187500     0.00390625
      163           0.312500   0.562500   0.312500     0.00390625
      164           0.312500   0.562500   0.437500     0.00390625
      165           0.312500   0.562500   0.562500     0.00390625
      166           0.312500   0.562500   0.687500     0.00390625
      167           0.312500   0.562500   0.812500     0.00390625
      168           0.312500   0.562500   0.937500     0.00390625
      169           0.312500   0.687500   0.062500     0.00390625
      170           0.312500   0.687500   0.187500     0.00390625
      171           0.312500   0.687500   0.312500     0.00390625
      172           0.312500   0.687500   0.437500     0.00390625
      173           0.312500   0.687500   0.562500     0.00390625
      174           0.312500   0.687500   0.687500     0.00390625
      175           0.312500   0.687500   0.812500     0.00390625
      176           0.312500   0.687500   0.937500     0.00390625
      177           0.312500   0.812500   0.062500     0.00390625
      178           0.312500   0.812500   0.187500     0.00390625
      179           0.312500   0.812500   0.312500     0.00390625
      180           0.312500   0.812500   0.437500     0.00390625
      181           0.312500   0.812500   0.562500     0.00390625
      182           0.312500   0.812500   0.687500     0.00390625
      183           0.312500   0.812500   0.812500     0.00390625
      184           0.312500   0.812500   0.937500     0.00390625
      185           0.312500   0.937500   0.062500     0.00390625
      186           0.312500   0.937500   0.187500     0.00390625
      187           0.312500   0.937500   0.312500     0.00390625
      188           0.312500   0.937500   0.437500     0.00390625
      189           0.312500   0.937500   0.562500     0.00390625
      190           0.312500   0.937500   0.687500     0.00390625
      191           0.312500   0.937500   0.812500     0.00390625
      192           0.312500   0.937500   0.937500     0.00390625
      193           0.437500   0.062500   0.062500     0.00390625
      194           0.437500   0.062500   0.187500     0.00390625
      195           0.437500   0.062500   0.312500     0.00390625
      196           0.437500   0.062500   0.437500     0.00390625
      197           0.437500   0.062500   0.562500     0.00390625
      198           0.437500   0.062500   0.687500     0.00390625
      199           0.437500   0.062500   0.812500     0.00390625
      200           0.437500   0.062500   0.937500     0.00390625
      201           0.437500   0.187500   0.062500     0.00390625
      202           0.437500   0.187500   0.187500     0.00390625
      203           0.437500   0.187500   0.312500     0.00390625
      204           0.437500   0.187500   0.437500     0.00390625
      205           0.437500   0.187500   0.562500     0.00390625
      206           0.437500   0.187500   0.687500     0.00390625
      207           0.437500   0.187500   0.812500     0.00390625
      208           0.437500   0.187500   0.937500     0.00390625
      209           0.437500   0.312500   0.062500     0.00390625
      210           0.437500   0.312500   0.187500     0.00390625
      211           0.437500   0.312500   0.312500     0.00390625
      212           0.437500   0.312500   0.437500     0.00390625
      213           0.437500   0.312500   0.562500     0.00390625
      214           0.437500   0.312500   0.687500     0.00390625
      215           0.437500   0.312500   0.812500     0.00390625
      216           0.437500   0.312500   0.937500     0.00390625
      217           0.437500   0.437500   0.062500     0.00390625
      218           0.437500   0.437500   0.187500     0.00390625
      219           0.437500   0.437500   0.312500     0.00390625
      220           0.437500   0.437500   0.437500     0.00390625
      221           0.437500   0.437500   0.562500     0.00390625
      222           0.437500   0.437500   0.687500     0.00390625
      223           0.437500   0.437500   0.812500     0.00390625
      224           0.437500   0.437500   0.937500     0.00390625
      225           0.437500   0.562500   0.062500     0.00390625
      226           0.437500   0.562500   0.187500     0.00390625
      227           0.437500   0.562500   0.312500     0.00390625
      228           0.437500   0.562500   0.437500     0.00390625
      229           0.437500   0.562500   0.562500     0.00390625
      230           0.437500   0.562500   0.687500     0.00390625
      231           0.437500   0.562500   0.812500     0.00390625
      232           0.437500   0.562500   0.937500     0.00390625
      233           0.437500   0.687500   0.062500     0.00390625
      234           0.437500   0.687500   0.187500     0.00390625
      235           0.437500   0.687500   0.312500     0.00390625
      236           0.437500   0.687500   0.437500     0.00390625
      237           0.437500   0.687500   0.562500     0.00390625
      238           0.437500   0.687500   0.687500     0.00390625
      239           0.437500   0.687500   0.812500     0.00390625
      240           0.437500   0.687500   0.937500     0.00390625
      241           0.437500   0.812500   0.062500     0.00390625
      242           0.437500   0.812500   0.187500     0.00390625
      243           0.437500   0.812500   0.312500     0.00390625
      244           0.437500   0.812500   0.437500     0.00390625
      245           0.437500   0.812500   0.562500     0.00390625
      246           0.437500   0.812500   0.687500     0.00390625
      247           0.437500   0.812500   0.812500     0.00390625
      248           0.437500   0.812500   0.937500     0.00390625
      249           0.437500   0.937500   0.062500     0.00390625
      250           0.437500   0.937500   0.187500     0.00390625
      251           0.437500   0.937500   0.312500     0.00390625
      252           0.437500   0.937500   0.437500     0.00390625
      253           0.437500   0.937500   0.562500     0.00390625
      254           0.437500   0.937500   0.687500     0.00390625
      255           0.437500   0.937500   0.812500     0.00390625
      256           0.437500   0.937500   0.937500     0.00390625
--------------------------------------------------------------------------------


********************************************************************************
*  General input information                                                   *
********************************************************************************

  Species output for all configurations : 

--------------------------------------------------------------------------------
  Species    Type    Atomic    Atomic    Charge       Radii (Angs)     Library
                     Number     Mass       (e)     Cova   Ionic  VDW   Symbol
--------------------------------------------------------------------------------
    C        Core        6      12.01   0.000000   0.770  0.000  1.530          
--------------------------------------------------------------------------------


  Lattice summation method               =    Ewald          (3-D)
                                         =    Parry          (2-D)
                                         =    Saunders et al (1-D)
  Accuracy factor for lattice sums       =   12.000


  Time limit = Infinity

  Maximum range for interatomic potentials =    100000.000000 Angstroms

  Brenner et al 2002 potential to be used with explicit splines for P


********************************************************************************
*  Output for configuration   1                                                *
********************************************************************************


  Components of energy : 

--------------------------------------------------------------------------------
  Interatomic potentials     =           0.00000000 eV    
  Brenner potentials         =         -58.89125080 eV    
  Monopole - monopole (real) =           0.00000000 eV    
  Monopole - monopole (recip)=           0.00000000 eV    
  Monopole - monopole (total)=           0.00000000 eV    
--------------------------------------------------------------------------------
  Total lattice energy       =         -58.89125080 eV    
--------------------------------------------------------------------------------
  Total lattice energy       =           -5682.1055 kJ/(mole unit cells)
--------------------------------------------------------------------------------


  Elastic Constant Matrix: (Units=GPa)

-------------------------------------------------------------------------------
  Indices      1         2         3         4         5         6    
-------------------------------------------------------------------------------
       1    987.0119   92.5843   92.5843   -0.0000   -0.0000   -0.0000
       2     92.5843  987.0119   92.5843   -0.0000   -0.0000   -0.0000
       3     92.5843   92.5843  987.0119   -0.0000   -0.0000   -0.0000
       4     -0.0000   -0.0000   -0.0000  655.5932    0.0000    0.0000
       5     -0.0000   -0.0000   -0.0000    0.0000  655.5932    0.0000
       6     -0.0000   -0.0000   -0.0000    0.0000    0.0000  655.5932
-------------------------------------------------------------------------------

  Elastic Constant Tensor Eigenvalues: (Units=GPa)

-------------------------------------------------------------------------------
     1 =   655.5932     2 =   655.5932     3 =   655.5932
     4 =   894.4276     5 =   894.4276     6 =  1172.1805
-------------------------------------------------------------------------------


  Elastic Compliance Matrix: (Units=1/GPa)

-------------------------------------------------------------------------------
  Indices      1         2         3         4         5         6    
-------------------------------------------------------------------------------
       1    0.001030 -0.000088 -0.000088  0.000000  0.000000  0.000000
       2   -0.000088  0.001030 -0.000088  0.000000  0.000000  0.000000
       3   -0.000088 -0.000088  0.001030  0.000000  0.000000  0.000000
       4    0.000000  0.000000  0.000000  0.001525 -0.000000 -0.000000
       5    0.000000  0.000000  0.000000 -0.000000  0.001525 -0.000000
       6    0.000000  0.000000  0.000000 -0.000000 -0.000000  0.001525
-------------------------------------------------------------------------------

  Mechanical properties :

-------------------------------------------------------------------------------
  Convention :                    Reuss         Voigt         Hill
-------------------------------------------------------------------------------
  Bulk  Modulus (GPa)     =     390.72684     390.72684     390.72684
  Shear Modulus (GPa)     =     552.59963     572.24145     562.42054
-------------------------------------------------------------------------------
  Velocity S-wave (km/s)  =      12.74036      12.96481      12.85308
  Velocity P-wave (km/s)  =      18.19868      18.40881      18.30405
-------------------------------------------------------------------------------
  Compressibility (1/GPa) =    0.00255933
-------------------------------------------------------------------------------
  Stress axis :                     x             y             z
-------------------------------------------------------------------------------
  Youngs Moduli (GPa)     =     971.13215     971.13215     971.13215
-------------------------------------------------------------------------------
  Poissons Ratio (x)      =                     0.08576       0.08576
  Poissons Ratio (y)      =       0.08576                     0.08576
  Poissons Ratio (z)      =       0.08576       0.08576
-------------------------------------------------------------------------------


  Piezoelectric Strain Matrix: (Units=C/m**2)

-------------------------------------------------------------------------------
  Indices      1         2         3         4         5         6    
-------------------------------------------------------------------------------
       x    -0.00000  -0.00000  -0.00000  -0.00000  -0.00000  -0.00000
       y    -0.00000  -0.00000  -0.00000  -0.00000  -0.00000  -0.00000
       z    -0.00000  -0.00000  -0.00000  -0.00000  -0.00000  -0.00000
-------------------------------------------------------------------------------


  Piezoelectric Stress Matrix: (Units=10**-11 C/N)

-------------------------------------------------------------------------------
  Indices      1         2         3         4         5         6    
-------------------------------------------------------------------------------
       x     0.00000   0.00000   0.00000   0.00000   0.00000   0.00000
       y     0.00000   0.00000   0.00000   0.00000   0.00000   0.00000
       z     0.00000   0.00000   0.00000   0.00000   0.00000   0.00000
-------------------------------------------------------------------------------


  Static dielectric constant tensor : 

-------------------------------------------------------------------------------
              x         y         z
-------------------------------------------------------------------------------
       x     1.00000   0.00000   0.00000
       y     0.00000   1.00000   0.00000
       z     0.00000   0.00000   1.00000
--------------------------------------------------------------------------------

  Static refractive indices : 

-------------------------------------------------------------------------------
    1 =    1.00000      2 =    1.00000      3 =    1.00000
-------------------------------------------------------------------------------


  Phonon Calculation : 

  Number of k points for this configuration =      256

--------------------------------------------------------------------------------
  K point      1 =   0.062500  0.062500  0.062500  Weight =    0.004
--------------------------------------------------------------------------------

  Frequencies (cm-1) [NB: Negative implies an imaginary mode]:

  122.98  122.98  191.19 1024.11 1024.11 1024.11 1034.82 1034.82 1034.82
 1159.77 1159.77 1159.77 1195.72 1195.72 1195.72 1227.52 1227.52 1227.52
 1293.87 1293.87 1293.87 1499.31 1499.31 1503.79


--------------------------------------------------------------------------------
  K point      2 =   0.062500  0.062500  0.187500  Weight =    0.004
--------------------------------------------------------------------------------

  Frequencies (cm-1) [NB: Negative implies an imaginary mode]:

  240.92  255.68  343.55  934.21  941.51 1016.33 1016.33 1046.18 1046.18
 1084.69 1117.20 1117.20 1185.60 1185.60 1258.84 1258.84 1260.71 1268.24
 1307.47 1307.47 1358.87 1487.30 1487.98 1500.57


--------------------------------------------------------------------------------
  K point      3 =   0.062500  0.062500  0.312500  Weight =    0.004
--------------------------------------------------------------------------------

  Frequencies (cm-1) [NB: Negative implies an imaginary mode]:

  393.53  403.60  510.30  818.22  822.72  965.17 1014.45 1014.45 1055.73
 1055.73 1077.59 1077.59 1168.42 1168.42 1287.69 1287.69 1321.78 1321.78
 1327.53 1332.06 1410.48 1465.08 1465.22 1491.24


--------------------------------------------------------------------------------
  K point      4 =   0.062500  0.062500  0.437500  Weight =    0.004
--------------------------------------------------------------------------------

  Frequencies (cm-1) [NB: Negative implies an imaginary mode]:

  545.40  549.50  673.58  688.72  689.55  826.66 1020.95 1020.95 1044.71
 1044.71 1064.96 1064.96 1157.14 1157.14 1303.92 1303.92 1329.77 1329.77
 1384.88 1387.54 1430.88 1431.95 1448.38 1474.53


--------------------------------------------------------------------------------
  K point      5 =   0.062500  0.062500  0.562500  Weight =    0.004
--------------------------------------------------------------------------------

  Frequencies (cm-1) [NB: Negative implies an imaginary mode]:

  545.40  549.50  673.58  688.72  689.55  826.66 1020.95 1020.95 1044.71
 1044.71 1064.96 1064.96 1157.14 1157.14 1303.92 1303.92 1329.77 1329.77
 1384.88 1387.54 1430.88 1431.95 1448.38 1474.53


--------------------------------------------------------------------------------
  K point      6 =   0.062500  0.062500  0.687500  Weight =    0.004
--------------------------------------------------------------------------------

  Frequencies (cm-1) [NB: Negative implies an imaginary mode]:

  393.53  403.60  510.30  818.22  822.72  965.17 1014.45 1014.45 1055.73
 1055.73 1077.59 1077.59 1168.42 1168.42 1287.69 1287.69 1321.78 1321.78
 1327.53 1332.06 1410.48 1465.08 1465.22 1491.24


--------------------------------------------------------------------------------
  K point      7 =   0.062500  0.062500  0.812500  Weight =    0.004
--------------------------------------------------------------------------------

  Frequencies (cm-1) [NB: Negative implies an imaginary mode]:

  240.92  255.68  343.55  934.21  941.51 1016.33 1016.33 1046.18 1046.18
 1084.69 1117.20 1117.20 1185.60 1185.60 1258.84 1258.84 1260.71 1268.24
 1307.47 1307.47 1358.87 1487.30 1487.98 1500.57


--------------------------------------------------------------------------------
  K point      8 =   0.062500  0.062500  0.937500  Weight =    0.004
--------------------------------------------------------------------------------

  Frequencies (cm-1) [NB: Negative implies an imaginary mode]:

  122.98  122.98  191.19 1024.11 1024.11 1024.11 1034.82 1034.82 1034.82
 1159.77 1159.77 1159.77 1195.72 1195.72 1195.72 1227.52 1227.52 1227.52
 1293.87 1293.87 1293.87 1499.31 1499.31 1503.79


--------------------------------------------------------------------------------
  K point      9 =   0.062500  0.187500  0.062500  Weight =    0.004
--------------------------------------------------------------------------------

  Frequencies (cm-1) [NB: Negative implies an imaginary mode]:

  240.92  255.68  343.55  934.21  941.51 1016.33 1016.33 1046.18 1046.18
 1084.69 1117.20 1117.20 1185.60 1185.60 1258.84 1258.84 1260.71 1268.24
 1307.47 1307.47 1358.87 1487.30 1487.98 1500.57


--------------------------------------------------------------------------------
  K point     10 =   0.062500  0.187500  0.187500  Weight =    0.004
--------------------------------------------------------------------------------

  Frequencies (cm-1) [NB: Negative implies an imaginary mode]:

  289.51  336.61  458.42  932.49  932.49  954.31  954.31  983.80 1060.37
 1063.04 1063.04 1093.16 1212.13 1239.12 1255.37 1255.37 1291.32 1291.32
 1332.74 1354.11 1354.11 1473.30 1477.53 1498.78


--------------------------------------------------------------------------------
  K point     11 =   0.062500  0.187500  0.312500  Weight =    0.004
--------------------------------------------------------------------------------

  Frequencies (cm-1) [NB: Negative implies an imaginary mode]:

  403.20  458.40  594.67  815.83  841.99  933.75  956.78  970.57  972.00
 1042.98 1043.77 1078.39 1210.06 1244.29 1264.67 1319.13 1320.49 1342.01
 1344.58 1350.27 1401.26 1450.10 1457.25 1489.03


--------------------------------------------------------------------------------
  K point     12 =   0.062500  0.187500  0.437500  Weight =    0.004
--------------------------------------------------------------------------------

  Frequencies (cm-1) [NB: Negative implies an imaginary mode]:

  541.56  589.67  682.61  719.31  730.49  857.51  935.16  940.66  993.38
 1017.68 1041.78 1058.64 1215.96 1229.91 1296.88 1321.44 1346.37 1354.81
 1374.78 1388.80 1417.72 1427.45 1440.42 1469.76


--------------------------------------------------------------------------------
  K point     13 =   0.062500  0.187500  0.562500  Weight =    0.004
--------------------------------------------------------------------------------

  Frequencies (cm-1) [NB: Negative implies an imaginary mode]:

  541.56  589.67  682.61  719.31  730.49  857.51  935.16  940.66  993.38
 1017.68 1041.78 1058.64 1215.96 1229.91 1296.88 1321.44 1346.37 1354.81
 1374.78 1388.80 1417.72 1427.45 1440.42 1469.76


--------------------------------------------------------------------------------
  K point     14 =   0.062500  0.187500  0.687500  Weight =    0.004
--------------------------------------------------------------------------------

  Frequencies (cm-1) [NB: Negative implies an imaginary mode]:

  403.20  458.40  594.67  815.83  841.99  933.75  956.78  970.57  972.00
 1042.98 1043.77 1078.39 1210.06 1244.29 1264.67 1319.13 1320.49 1342.01
 1344.58 1350.27 1401.26 1450.10 1457.25 1489.03


--------------------------------------------------------------------------------
  K point     15 =   0.062500  0.187500  0.812500  Weight =    0.004
--------------------------------------------------------------------------------

  Frequencies (cm-1) [NB: Negative implies an imaginary mode]:

  289.51  336.61  458.42  932.49  932.49  954.31  954.31  983.80 1060.37
 1063.04 1063.04 1093.16 1212.13 1239.12 1255.37 1255.37 1291.32 1291.32
 1332.74 1354.11 1354.11 1473.30 1477.53 1498.78


--------------------------------------------------------------------------------
  K point     16 =   0.062500  0.187500  0.937500  Weight =    0.004
--------------------------------------------------------------------------------

  Frequencies (cm-1) [NB: Negative implies an imaginary mode]:

  240.92  255.68  343.55  934.21  941.51 1016.33 1016.33 1046.18 1046.18
 1084.69 1117.20 1117.20 1185.60 1185.60 1258.84 1258.84 1260.71 1268.24
 1307.47 1307.47 1358.87 1487.30 1487.98 1500.57


--------------------------------------------------------------------------------
  K point     17 =   0.062500  0.312500  0.062500  Weight =    0.004
--------------------------------------------------------------------------------

  Frequencies (cm-1) [NB: Negative implies an imaginary mode]:

  393.53  403.60  510.30  818.22  822.72  965.17 1014.45 1014.45 1055.73
 1055.73 1077.59 1077.59 1168.42 1168.42 1287.69 1287.69 1321.78 1321.78
 1327.53 1332.06 1410.48 1465.08 1465.22 1491.24


--------------------------------------------------------------------------------
  K point     18 =   0.062500  0.312500  0.187500  Weight =    0.004
--------------------------------------------------------------------------------

  Frequencies (cm-1) [NB: Negative implies an imaginary mode]:

  403.20  458.40  594.67  815.83  841.99  933.75  956.78  970.57  972.00
 1042.98 1043.77 1078.39 1210.06 1244.29 1264.67 1319.13 1320.49 1342.01
 1344.58 1350.27 1401.26 1450.10 1457.25 1489.03


--------------------------------------------------------------------------------
  K point     19 =   0.062500  0.312500  0.312500  Weight =    0.004
--------------------------------------------------------------------------------

  Frequencies (cm-1) [NB: Negative implies an imaginary mode]:

  464.70  552.34  699.61  816.10  816.10  878.41  878.41  900.60  982.04
  982.04 1011.69 1060.46 1249.14 1274.24 1307.02 1307.02 1356.91 1356.91
 1368.70 1382.53 1382.53 1425.98 1441.64 1478.35


--------------------------------------------------------------------------------
  K point     20 =   0.062500  0.312500  0.437500  Weight =    0.004
--------------------------------------------------------------------------------

  Frequencies (cm-1) [NB: Negative implies an imaginary mode]:

  567.68  661.76  690.00  773.20  804.58  827.68  855.86  900.61  925.08
  972.32 1000.71 1028.15 1268.70 1288.80 1315.96 1353.84 1356.07 1369.88
 1374.91 1390.20 1394.85 1418.89 1423.43 1456.53


--------------------------------------------------------------------------------
  K point     21 =   0.062500  0.312500  0.562500  Weight =    0.004
--------------------------------------------------------------------------------

  Frequencies (cm-1) [NB: Negative implies an imaginary mode]:

  567.68  661.76  690.00  773.20  804.58  827.68  855.86  900.61  925.08
  972.32 1000.71 1028.15 1268.70 1288.80 1315.96 1353.84 1356.07 1369.88
 1374.91 1390.20 1394.85 1418.89 1423.43 1456.53


--------------------------------------------------------------------------------
  K point     22 =   0.062500  0.312500  0.687500  Weight =    0.004
--------------------------------------------------------------------------------

  Frequencies (cm-1) [NB: Negative implies an imaginary mode]:

  464.70  552.34  699.61  816.10  816.10  878.41  878.41  900.60  982.04
  982.04 1011.69 1060.46 1249.14 1274.24 1307.02 1307.02 1356.91 1356.91
 1368.70 1382.53 1382.53 1425.98 1441.64 1478.35


--------------------------------------------------------------------------------
  K point     23 =   0.062500  0.312500  0.812500  Weight =    0.004
--------------------------------------------------------------------------------

  Frequencies (cm-1) [NB: Negative implies an imaginary mode]:

  403.20  458.40  594.67  815.83  841.99  933.75  956.78  970.57  972.00
 1042.98 1043.77 1078.39 1210.06 1244.29 1264.67 1319.13 1320.49 1342.01
 1344.58 1350.27 1401.26 1450.10 1457.25 1489.03


--------------------------------------------------------------------------------
  K point     24 =   0.062500  0.312500  0.937500  Weight =    0.004
--------------------------------------------------------------------------------

  Frequencies (cm-1) [NB: Negative implies an imaginary mode]:

  393.53  403.60  510.30  818.22  822.72  965.17 1014.45 1014.45 1055.73
 1055.73 1077.59 1077.59 1168.42 1168.42 1287.69 1287.69 1321.78 1321.78
 1327.53 1332.06 1410.48 1465.08 1465.22 1491.24


--------------------------------------------------------------------------------
  K point     25 =   0.062500  0.437500  0.062500  Weight =    0.004
--------------------------------------------------------------------------------

  Frequencies (cm-1) [NB: Negative implies an imaginary mode]:

  545.40  549.50  673.58  688.72  689.55  826.66 1020.95 1020.95 1044.71
 1044.71 1064.96 1064.96 1157.14 1157.14 1303.92 1303.92 1329.77 1329.77
 1384.88 1387.54 1430.88 1431.95 1448.38 1474.53


--------------------------------------------------------------------------------
  K point     26 =   0.062500  0.437500  0.187500  Weight =    0.004
--------------------------------------------------------------------------------

  Frequencies (cm-1) [NB: Negative implies an imaginary mode]:

  541.56  589.67  682.61  719.31  730.49  857.51  935.16  940.66  993.38
 1017.68 1041.78 1058.64 1215.96 1229.91 1296.88 1321.44 1346.37 1354.81
 1374.78 1388.80 1417.72 1427.45 1440.42 1469.76


--------------------------------------------------------------------------------
  K point     27 =   0.062500  0.437500  0.312500  Weight =    0.004
--------------------------------------------------------------------------------

  Frequencies (cm-1) [NB: Negative implies an imaginary mode]:

  567.68  661.76  690.00  773.20  804.58  827.68  855.86  900.61  925.08
  972.32 1000.71 1028.15 1268.70 1288.80 1315.96 1353.84 1356.07 1369.88
 1374.91 1390.20 1394.85 1418.89 1423.43 1456.53


--------------------------------------------------------------------------------
  K point     28 =   0.062500  0.437500  0.437500  Weight =    0.004
--------------------------------------------------------------------------------

  Frequencies (cm-1) [NB: Negative implies an imaginary mode]:

  631.33  722.42  722.42  749.67  779.91  840.80  840.80  878.63  910.89
  945.32  945.32  988.25 1303.28 1331.51 1331.51 1355.01 1365.79 1386.34
 1386.34 1387.58 1399.13 1399.13 1405.62 1432.47


--------------------------------------------------------------------------------
  K point     29 =   0.062500  0.437500  0.562500  Weight =    0.004
--------------------------------------------------------------------------------

  Frequencies (cm-1) [NB: Negative implies an imaginary mode]:

  631.33  722.42  722.42  749.67  779.91  840.80  840.80  878.63  910.89
  945.32  945.32  988.25 1303.28 1331.51 1331.51 1355.01 1365.79 1386.34
 1386.34 1387.58 1399.13 1399.13 1405.62 1432.47


--------------------------------------------------------------------------------
  K point     30 =   0.062500  0.437500  0.687500  Weight =    0.004
--------------------------------------------------------------------------------

  Frequencies (cm-1) [NB: Negative implies an imaginary mode]:

  567.68  661.76  690.00  773.20  804.58  827.68  855.86  900.61  925.08
  972.32 1000.71 1028.15 1268.70 1288.80 1315.96 1353.84 1356.07 1369.88
 1374.91 1390.20 1394.85 1418.89 1423.43 1456.53


--------------------------------------------------------------------------------
  K point     31 =   0.062500  0.437500  0.812500  Weight =    0.004
--------------------------------------------------------------------------------

  Frequencies (cm-1) [NB: Negative implies an imaginary mode]:

  541.56  589.67  682.61  719.31  730.49  857.51  935.16  940.66  993.38
 1017.68 1041.78 1058.64 1215.96 1229.91 1296.88 1321.44 1346.37 1354.81
 1374.78 1388.80 1417.72 1427.45 1440.42 1469.76


--------------------------------------------------------------------------------
  K point     32 =   0.062500  0.437500  0.937500  Weight =    0.004
--------------------------------------------------------------------------------

  Frequencies (cm-1) [NB: Negative implies an imaginary mode]:

  545.40  549.50  673.58  688.72  689.55  826.66 1020.95 1020.95 1044.71
 1044.71 1064.96 1064.96 1157.14 1157.14 1303.92 1303.92 1329.77 1329.77
 1384.88 1387.54 1430.88 1431.95 1448.38 1474.53


--------------------------------------------------------------------------------
  K point     33 =   0.062500  0.562500  0.062500  Weight =    0.004
--------------------------------------------------------------------------------

  Frequencies (cm-1) [NB: Negative implies an imaginary mode]:

  545.40  549.50  673.58  688.72  689.55  826.66 1020.95 1020.95 1044.71
 1044.71 1064.96 1064.96 1157.14 1157.14 1303.92 1303.92 1329.77 1329.77
 1384.88 1387.54 1430.88 1431.95 1448.38 1474.53


--------------------------------------------------------------------------------
  K point     34 =   0.062500  0.562500  0.187500  Weight =    0.004
--------------------------------------------------------------------------------

  Frequencies (cm-1) [NB: Negative implies an imaginary mode]:

  541.56  589.67  682.61  719.31  730.49  857.51  935.16  940.66  993.38
 1017.68 1041.78 1058.64 1215.96 1229.91 1296.88 1321.44 1346.37 1354.81
 1374.78 1388.80 1417.72 1427.45 1440.42 1469.76


--------------------------------------------------------------------------------
  K point     35 =   0.062500  0.562500  0.312500  Weight =    0.004
--------------------------------------------------------------------------------

  Frequencies (cm-1) [NB: Negative implies an imaginary mode]:

  567.68  661.76  690.00  773.20  804.58  827.68  855.86  900.61  925.08
  972.32 1000.71 1028.15 1268.70 1288.80 1315.96 1353.84 1356.07 1369.88
 1374.91 1390.20 1394.85 1418.89 1423.43 1456.53


--------------------------------------------------------------------------------
  K point     36 =   0.062500  0.562500  0.437500  Weight =    0.004
--------------------------------------------------------------------------------

  Frequencies (cm-1) [NB: Negative implies an imaginary mode]:

  631.33  722.42  722.42  749.67  779.91  840.80  840.80  878.63  910.89
  945.32  945.32  988.25 1303.28 1331.51 1331.51 1355.01 1365.79 1386.34
 1386.34 1387.58 1399.13 1399.13 1405.62 1432.47


--------------------------------------------------------------------------------
  K point     37 =   0.062500  0.562500  0.562500  Weight =    0.004
--------------------------------------------------------------------------------

  Frequencies (cm-1) [NB: Negative implies an imaginary mode]:

  631.33  722.42  722.42  749.67  779.91  840.80  840.80  878.63  910.89
  945.32  945.32  988.25 1303.28 1331.51 1331.51 1355.01 1365.79 1386.34
 1386.34 1387.58 1399.13 1399.13 1405.62 1432.47


--------------------------------------------------------------------------------
  K point     38 =   0.062500  0.562500  0.687500  Weight =    0.004
--------------------------------------------------------------------------------

  Frequencies (cm-1) [NB: Negative implies an imaginary mode]:

  567.68  661.76  690.00  773.20  804.58  827.68  855.86  900.61  925.08
  972.32 1000.71 1028.15 1268.70 1288.80 1315.96 1353.84 1356.07 1369.88
 1374.91 1390.20 1394.85 1418.89 1423.43 1456.53


--------------------------------------------------------------------------------
  K point     39 =   0.062500  0.562500  0.812500  Weight =    0.004
--------------------------------------------------------------------------------

  Frequencies (cm-1) [NB: Negative implies an imaginary mode]:

  541.56  589.67  682.61  719.31  730.49  857.51  935.16  940.66  993.38
 1017.68 1041.78 1058.64 1215.96 1229.91 1296.88 1321.44 1346.37 1354.81
 1374.78 1388.80 1417.72 1427.45 1440.42 1469.76


--------------------------------------------------------------------------------
  K point     40 =   0.062500  0.562500  0.937500  Weight =    0.004
--------------------------------------------------------------------------------

  Frequencies (cm-1) [NB: Negative implies an imaginary mode]:

  545.40  549.50  673.58  688.72  689.55  826.66 1020.95 1020.95 1044.71
 1044.71 1064.96 1064.96 1157.14 1157.14 1303.92 1303.92 1329.77 1329.77
 1384.88 1387.54 1430.88 1431.95 1448.38 1474.53


--------------------------------------------------------------------------------
  K point     41 =   0.062500  0.687500  0.062500  Weight =    0.004
--------------------------------------------------------------------------------

  Frequencies (cm-1) [NB: Negative implies an imaginary mode]:

  393.53  403.60  510.30  818.22  822.72  965.17 1014.45 1014.45 1055.73
 1055.73 1077.59 1077.59 1168.42 1168.42 1287.69 1287.69 1321.78 1321.78
 1327.53 1332.06 1410.48 1465.08 1465.22 1491.24


--------------------------------------------------------------------------------
  K point     42 =   0.062500  0.687500  0.187500  Weight =    0.004
--------------------------------------------------------------------------------

  Frequencies (cm-1) [NB: Negative implies an imaginary mode]:

  403.20  458.40  594.67  815.83  841.99  933.75  956.78  970.57  972.00
 1042.98 1043.77 1078.39 1210.06 1244.29 1264.67 1319.13 1320.49 1342.01
 1344.58 1350.27 1401.26 1450.10 1457.25 1489.03


--------------------------------------------------------------------------------
  K point     43 =   0.062500  0.687500  0.312500  Weight =    0.004
--------------------------------------------------------------------------------

  Frequencies (cm-1) [NB: Negative implies an imaginary mode]:

  464.70  552.34  699.61  816.10  816.10  878.41  878.41  900.60  982.04
  982.04 1011.69 1060.46 1249.14 1274.24 1307.02 1307.02 1356.91 1356.91
 1368.70 1382.53 1382.53 1425.98 1441.64 1478.35


--------------------------------------------------------------------------------
  K point     44 =   0.062500  0.687500  0.437500  Weight =    0.004
--------------------------------------------------------------------------------

  Frequencies (cm-1) [NB: Negative implies an imaginary mode]:

  567.68  661.76  690.00  773.20  804.58  827.68  855.86  900.61  925.08
  972.32 1000.71 1028.15 1268.70 1288.80 1315.96 1353.84 1356.07 1369.88
 1374.91 1390.20 1394.85 1418.89 1423.43 1456.53


--------------------------------------------------------------------------------
  K point     45 =   0.062500  0.687500  0.562500  Weight =    0.004
--------------------------------------------------------------------------------

  Frequencies (cm-1) [NB: Negative implies an imaginary mode]:

  567.68  661.76  690.00  773.20  804.58  827.68  855.86  900.61  925.08
  972.32 1000.71 1028.15 1268.70 1288.80 1315.96 1353.84 1356.07 1369.88
 1374.91 1390.20 1394.85 1418.89 1423.43 1456.53


--------------------------------------------------------------------------------
  K point     46 =   0.062500  0.687500  0.687500  Weight =    0.004
--------------------------------------------------------------------------------

  Frequencies (cm-1) [NB: Negative implies an imaginary mode]:

  464.70  552.34  699.61  816.10  816.10  878.41  878.41  900.60  982.04
  982.04 1011.69 1060.46 1249.14 1274.24 1307.02 1307.02 1356.91 1356.91
 1368.70 1382.53 1382.53 1425.98 1441.64 1478.35


--------------------------------------------------------------------------------
  K point     47 =   0.062500  0.687500  0.812500  Weight =    0.004
--------------------------------------------------------------------------------

  Frequencies (cm-1) [NB: Negative implies an imaginary mode]:

  403.20  458.40  594.67  815.83  841.99  933.75  956.78  970.57  972.00
 1042.98 1043.77 1078.39 1210.06 1244.29 1264.67 1319.13 1320.49 1342.01
 1344.58 1350.27 1401.26 1450.10 1457.25 1489.03


--------------------------------------------------------------------------------
  K point     48 =   0.062500  0.687500  0.937500  Weight =    0.004
--------------------------------------------------------------------------------

  Frequencies (cm-1) [NB: Negative implies an imaginary mode]:

  393.53  403.60  510.30  818.22  822.72  965.17 1014.45 1014.45 1055.73
 1055.73 1077.59 1077.59 1168.42 1168.42 1287.69 1287.69 1321.78 1321.78
 1327.53 1332.06 1410.48 1465.08 1465.22 1491.24


--------------------------------------------------------------------------------
  K point     49 =   0.062500  0.812500  0.062500  Weight =    0.004
--------------------------------------------------------------------------------

  Frequencies (cm-1) [NB: Negative implies an imaginary mode]:

  240.92  255.68  343.55  934.21  941.51 1016.33 1016.33 1046.18 1046.18
 1084.69 1117.20 1117.20 1185.60 1185.60 1258.84 1258.84 1260.71 1268.24
 1307.47 1307.47 1358.87 1487.30 1487.98 1500.57


--------------------------------------------------------------------------------
  K point     50 =   0.062500  0.812500  0.187500  Weight =    0.004
--------------------------------------------------------------------------------

  Frequencies (cm-1) [NB: Negative implies an imaginary mode]:

  289.51  336.61  458.42  932.49  932.49  954.31  954.31  983.80 1060.37
 1063.04 1063.04 1093.16 1212.13 1239.12 1255.37 1255.37 1291.32 1291.32
 1332.74 1354.11 1354.11 1473.30 1477.53 1498.78


--------------------------------------------------------------------------------
  K point     51 =   0.062500  0.812500  0.312500  Weight =    0.004
--------------------------------------------------------------------------------

  Frequencies (cm-1) [NB: Negative implies an imaginary mode]:

  403.20  458.40  594.67  815.83  841.99  933.75  956.78  970.57  972.00
 1042.98 1043.77 1078.39 1210.06 1244.29 1264.67 1319.13 1320.49 1342.01
 1344.58 1350.27 1401.26 1450.10 1457.25 1489.03


--------------------------------------------------------------------------------
  K point     52 =   0.062500  0.812500  0.437500  Weight =    0.004
--------------------------------------------------------------------------------

  Frequencies (cm-1) [NB: Negative implies an imaginary mode]:

  541.56  589.67  682.61  719.31  730.49  857.51  935.16  940.66  993.38
 1017.68 1041.78 1058.64 1215.96 1229.91 1296.88 1321.44 1346.37 1354.81
 1374.78 1388.80 1417.72 1427.45 1440.42 1469.76


--------------------------------------------------------------------------------
  K point     53 =   0.062500  0.812500  0.562500  Weight =    0.004
--------------------------------------------------------------------------------

  Frequencies (cm-1) [NB: Negative implies an imaginary mode]:

  541.56  589.67  682.61  719.31  730.49  857.51  935.16  940.66  993.38
 1017.68 1041.78 1058.64 1215.96 1229.91 1296.88 1321.44 1346.37 1354.81
 1374.78 1388.80 1417.72 1427.45 1440.42 1469.76


--------------------------------------------------------------------------------
  K point     54 =   0.062500  0.812500  0.687500  Weight =    0.004
--------------------------------------------------------------------------------

  Frequencies (cm-1) [NB: Negative implies an imaginary mode]:

  403.20  458.40  594.67  815.83  841.99  933.75  956.78  970.57  972.00
 1042.98 1043.77 1078.39 1210.06 1244.29 1264.67 1319.13 1320.49 1342.01
 1344.58 1350.27 1401.26 1450.10 1457.25 1489.03


--------------------------------------------------------------------------------
  K point     55 =   0.062500  0.812500  0.812500  Weight =    0.004
--------------------------------------------------------------------------------

  Frequencies (cm-1) [NB: Negative implies an imaginary mode]:

  289.51  336.61  458.42  932.49  932.49  954.31  954.31  983.80 1060.37
 1063.04 1063.04 1093.16 1212.13 1239.12 1255.37 1255.37 1291.32 1291.32
 1332.74 1354.11 1354.11 1473.30 1477.53 1498.78


--------------------------------------------------------------------------------
  K point     56 =   0.062500  0.812500  0.937500  Weight =    0.004
--------------------------------------------------------------------------------

  Frequencies (cm-1) [NB: Negative implies an imaginary mode]:

  240.92  255.68  343.55  934.21  941.51 1016.33 1016.33 1046.18 1046.18
 1084.69 1117.20 1117.20 1185.60 1185.60 1258.84 1258.84 1260.71 1268.24
 1307.47 1307.47 1358.87 1487.30 1487.98 1500.57


--------------------------------------------------------------------------------
  K point     57 =   0.062500  0.937500  0.062500  Weight =    0.004
--------------------------------------------------------------------------------

  Frequencies (cm-1) [NB: Negative implies an imaginary mode]:

  122.98  122.98  191.19 1024.11 1024.11 1024.11 1034.82 1034.82 1034.82
 1159.77 1159.77 1159.77 1195.72 1195.72 1195.72 1227.52 1227.52 1227.52
 1293.87 1293.87 1293.87 1499.31 1499.31 1503.79


--------------------------------------------------------------------------------
  K point     58 =   0.062500  0.937500  0.187500  Weight =    0.004
--------------------------------------------------------------------------------

  Frequencies (cm-1) [NB: Negative implies an imaginary mode]:

  240.92  255.68  343.55  934.21  941.51 1016.33 1016.33 1046.18 1046.18
 1084.69 1117.20 1117.20 1185.60 1185.60 1258.84 1258.84 1260.71 1268.24
 1307.47 1307.47 1358.87 1487.30 1487.98 1500.57


--------------------------------------------------------------------------------
  K point     59 =   0.062500  0.937500  0.312500  Weight =    0.004
--------------------------------------------------------------------------------

  Frequencies (cm-1) [NB: Negative implies an imaginary mode]:

  393.53  403.60  510.30  818.22  822.72  965.17 1014.45 1014.45 1055.73
 1055.73 1077.59 1077.59 1168.42 1168.42 1287.69 1287.69 1321.78 1321.78
 1327.53 1332.06 1410.48 1465.08 1465.22 1491.24


--------------------------------------------------------------------------------
  K point     60 =   0.062500  0.937500  0.437500  Weight =    0.004
--------------------------------------------------------------------------------

  Frequencies (cm-1) [NB: Negative implies an imaginary mode]:

  545.40  549.50  673.58  688.72  689.55  826.66 1020.95 1020.95 1044.71
 1044.71 1064.96 1064.96 1157.14 1157.14 1303.92 1303.92 1329.77 1329.77
 1384.88 1387.54 1430.88 1431.95 1448.38 1474.53


--------------------------------------------------------------------------------
  K point     61 =   0.062500  0.937500  0.562500  Weight =    0.004
--------------------------------------------------------------------------------

  Frequencies (cm-1) [NB: Negative implies an imaginary mode]:

  545.40  549.50  673.58  688.72  689.55  826.66 1020.95 1020.95 1044.71
 1044.71 1064.96 1064.96 1157.14 1157.14 1303.92 1303.92 1329.77 1329.77
 1384.88 1387.54 1430.88 1431.95 1448.38 1474.53


--------------------------------------------------------------------------------
  K point     62 =   0.062500  0.937500  0.687500  Weight =    0.004
--------------------------------------------------------------------------------

  Frequencies (cm-1) [NB: Negative implies an imaginary mode]:

  393.53  403.60  510.30  818.22  822.72  965.17 1014.45 1014.45 1055.73
 1055.73 1077.59 1077.59 1168.42 1168.42 1287.69 1287.69 1321.78 1321.78
 1327.53 1332.06 1410.48 1465.08 1465.22 1491.24


--------------------------------------------------------------------------------
  K point     63 =   0.062500  0.937500  0.812500  Weight =    0.004
--------------------------------------------------------------------------------

  Frequencies (cm-1) [NB: Negative implies an imaginary mode]:

  240.92  255.68  343.55  934.21  941.51 1016.33 1016.33 1046.18 1046.18
 1084.69 1117.20 1117.20 1185.60 1185.60 1258.84 1258.84 1260.71 1268.24
 1307.47 1307.47 1358.87 1487.30 1487.98 1500.57


--------------------------------------------------------------------------------
  K point     64 =   0.062500  0.937500  0.937500  Weight =    0.004
--------------------------------------------------------------------------------

  Frequencies (cm-1) [NB: Negative implies an imaginary mode]:

  122.98  122.98  191.19 1024.11 1024.11 1024.11 1034.82 1034.82 1034.82
 1159.77 1159.77 1159.77 1195.72 1195.72 1195.72 1227.52 1227.52 1227.52
 1293.87 1293.87 1293.87 1499.31 1499.31 1503.79


--------------------------------------------------------------------------------
  K point     65 =   0.187500  0.062500  0.062500  Weight =    0.004
--------------------------------------------------------------------------------

  Frequencies (cm-1) [NB: Negative implies an imaginary mode]:

  240.92  255.68  343.55  934.21  941.51 1016.33 1016.33 1046.18 1046.18
 1084.69 1117.20 1117.20 1185.60 1185.60 1258.84 1258.84 1260.71 1268.24
 1307.47 1307.47 1358.87 1487.30 1487.98 1500.57


--------------------------------------------------------------------------------
  K point     66 =   0.187500  0.062500  0.187500  Weight =    0.004
--------------------------------------------------------------------------------

  Frequencies (cm-1) [NB: Negative implies an imaginary mode]:

  289.51  336.61  458.42  932.49  932.49  954.31  954.31  983.80 1060.37
 1063.04 1063.04 1093.16 1212.13 1239.12 1255.37 1255.37 1291.32 1291.32
 1332.74 1354.11 1354.11 1473.30 1477.53 1498.78


--------------------------------------------------------------------------------
  K point     67 =   0.187500  0.062500  0.312500  Weight =    0.004
--------------------------------------------------------------------------------

  Frequencies (cm-1) [NB: Negative implies an imaginary mode]:

  403.20  458.40  594.67  815.83  841.99  933.75  956.78  970.57  972.00
 1042.98 1043.77 1078.39 1210.06 1244.29 1264.67 1319.13 1320.49 1342.01
 1344.58 1350.27 1401.26 1450.10 1457.25 1489.03


--------------------------------------------------------------------------------
  K point     68 =   0.187500  0.062500  0.437500  Weight =    0.004
--------------------------------------------------------------------------------

  Frequencies (cm-1) [NB: Negative implies an imaginary mode]:

  541.56  589.67  682.61  719.31  730.49  857.51  935.16  940.66  993.38
 1017.68 1041.78 1058.64 1215.96 1229.91 1296.88 1321.44 1346.37 1354.81
 1374.78 1388.80 1417.72 1427.45 1440.42 1469.76


--------------------------------------------------------------------------------
  K point     69 =   0.187500  0.062500  0.562500  Weight =    0.004
--------------------------------------------------------------------------------

  Frequencies (cm-1) [NB: Negative implies an imaginary mode]:

  541.56  589.67  682.61  719.31  730.49  857.51  935.16  940.66  993.38
 1017.68 1041.78 1058.64 1215.96 1229.91 1296.88 1321.44 1346.37 1354.81
 1374.78 1388.80 1417.72 1427.45 1440.42 1469.76


--------------------------------------------------------------------------------
  K point     70 =   0.187500  0.062500  0.687500  Weight =    0.004
--------------------------------------------------------------------------------

  Frequencies (cm-1) [NB: Negative implies an imaginary mode]:

  403.20  458.40  594.67  815.83  841.99  933.75  956.78  970.57  972.00
 1042.98 1043.77 1078.39 1210.06 1244.29 1264.67 1319.13 1320.49 1342.01
 1344.58 1350.27 1401.26 1450.10 1457.25 1489.03


--------------------------------------------------------------------------------
  K point     71 =   0.187500  0.062500  0.812500  Weight =    0.004
--------------------------------------------------------------------------------

  Frequencies (cm-1) [NB: Negative implies an imaginary mode]:

  289.51  336.61  458.42  932.49  932.49  954.31  954.31  983.80 1060.37
 1063.04 1063.04 1093.16 1212.13 1239.12 1255.37 1255.37 1291.32 1291.32
 1332.74 1354.11 1354.11 1473.30 1477.53 1498.78


--------------------------------------------------------------------------------
  K point     72 =   0.187500  0.062500  0.937500  Weight =    0.004
--------------------------------------------------------------------------------

  Frequencies (cm-1) [NB: Negative implies an imaginary mode]:

  240.92  255.68  343.55  934.21  941.51 1016.33 1016.33 1046.18 1046.18
 1084.69 1117.20 1117.20 1185.60 1185.60 1258.84 1258.84 1260.71 1268.24
 1307.47 1307.47 1358.87 1487.30 1487.98 1500.57


--------------------------------------------------------------------------------
  K point     73 =   0.187500  0.187500  0.062500  Weight =    0.004
--------------------------------------------------------------------------------

  Frequencies (cm-1) [NB: Negative implies an imaginary mode]:

  289.51  336.61  458.42  932.49  932.49  954.31  954.31  983.80 1060.37
 1063.04 1063.04 1093.16 1212.13 1239.12 1255.37 1255.37 1291.32 1291.32
 1332.74 1354.11 1354.11 1473.30 1477.53 1498.78


--------------------------------------------------------------------------------
  K point     74 =   0.187500  0.187500  0.187500  Weight =    0.004
--------------------------------------------------------------------------------

  Frequencies (cm-1) [NB: Negative implies an imaginary mode]:

  359.00  359.00  553.91  914.44  914.44  914.44  962.12  962.12  962.12
 1057.72 1057.72 1057.72 1259.77 1259.77 1259.77 1296.44 1296.44 1296.44
 1356.07 1356.07 1356.07 1462.69 1462.69 1498.18


--------------------------------------------------------------------------------
  K point     75 =   0.187500  0.187500  0.312500  Weight =    0.004
--------------------------------------------------------------------------------

  Frequencies (cm-1) [NB: Negative implies an imaginary mode]:

  444.78  465.03  672.50  815.29  838.71  900.58  900.58  956.51  956.51
  988.72 1057.78 1057.78 1257.76 1257.76 1311.16 1311.16 1316.37 1346.96
 1356.98 1356.98 1394.75 1440.76 1441.45 1489.07


--------------------------------------------------------------------------------
  K point     76 =   0.187500  0.187500  0.437500  Weight =    0.004
--------------------------------------------------------------------------------

  Frequencies (cm-1) [NB: Negative implies an imaginary mode]:

  568.17  583.54  702.63  704.20  790.40  893.93  893.93  897.75  947.36
  947.36 1061.23 1061.23 1254.12 1254.12 1324.59 1324.59 1355.42 1355.42
 1367.58 1383.87 1409.64 1414.33 1436.07 1468.57


--------------------------------------------------------------------------------
  K point     77 =   0.187500  0.187500  0.562500  Weight =    0.004
--------------------------------------------------------------------------------

  Frequencies (cm-1) [NB: Negative implies an imaginary mode]:

  568.17  583.54  702.63  704.20  790.40  893.93  893.93  897.75  947.36
  947.36 1061.23 1061.23 1254.12 1254.12 1324.59 1324.59 1355.42 1355.42
 1367.58 1383.87 1409.64 1414.33 1436.07 1468.57


--------------------------------------------------------------------------------
  K point     78 =   0.187500  0.187500  0.687500  Weight =    0.004
--------------------------------------------------------------------------------

  Frequencies (cm-1) [NB: Negative implies an imaginary mode]:

  444.78  465.03  672.50  815.29  838.71  900.58  900.58  956.51  956.51
  988.72 1057.78 1057.78 1257.76 1257.76 1311.16 1311.16 1316.37 1346.96
 1356.98 1356.98 1394.75 1440.76 1441.45 1489.07


--------------------------------------------------------------------------------
  K point     79 =   0.187500  0.187500  0.812500  Weight =    0.004
--------------------------------------------------------------------------------

  Frequencies (cm-1) [NB: Negative implies an imaginary mode]:

  359.00  359.00  553.91  914.44  914.44  914.44  962.12  962.12  962.12
 1057.72 1057.72 1057.72 1259.77 1259.77 1259.77 1296.44 1296.44 1296.44
 1356.07 1356.07 1356.07 1462.69 1462.69 1498.18


--------------------------------------------------------------------------------
  K point     80 =   0.187500  0.187500  0.937500  Weight =    0.004
--------------------------------------------------------------------------------

  Frequencies (cm-1) [NB: Negative implies an imaginary mode]:

  289.51  336.61  458.42  932.49  932.49  954.31  954.31  983.80 1060.37
 1063.04 1063.04 1093.16 1212.13 1239.12 1255.37 1255.37 1291.32 1291.32
 1332.74 1354.11 1354.11 1473.30 1477.53 1498.78


--------------------------------------------------------------------------------
  K point     81 =   0.187500  0.312500  0.062500  Weight =    0.004
--------------------------------------------------------------------------------

  Frequencies (cm-1) [NB: Negative implies an imaginary mode]:

  403.20  458.40  594.67  815.83  841.99  933.75  956.78  970.57  972.00
 1042.98 1043.77 1078.39 1210.06 1244.29 1264.67 1319.13 1320.49 1342.01
 1344.58 1350.27 1401.26 1450.10 1457.25 1489.03


--------------------------------------------------------------------------------
  K point     82 =   0.187500  0.312500  0.187500  Weight =    0.004
--------------------------------------------------------------------------------

  Frequencies (cm-1) [NB: Negative implies an imaginary mode]:

  444.78  465.03  672.50  815.29  838.71  900.58  900.58  956.51  956.51
  988.72 1057.78 1057.78 1257.76 1257.76 1311.16 1311.16 1316.37 1346.96
 1356.98 1356.98 1394.75 1440.76 1441.45 1489.07


--------------------------------------------------------------------------------
  K point     83 =   0.187500  0.312500  0.312500  Weight =    0.004
--------------------------------------------------------------------------------

  Frequencies (cm-1) [NB: Negative implies an imaginary mode]:

  499.77  538.59  770.55  810.20  810.20  849.05  849.05  861.56  929.28
 1014.55 1014.55 1065.71 1272.73 1307.62 1307.62 1317.21 1355.30 1355.30
 1366.06 1381.86 1381.86 1417.35 1423.79 1480.55


--------------------------------------------------------------------------------
  K point     84 =   0.187500  0.312500  0.437500  Weight =    0.004
--------------------------------------------------------------------------------

  Frequencies (cm-1) [NB: Negative implies an imaginary mode]:

  589.73  636.53  700.28  741.41  812.84  830.21  866.38  870.53  898.64
  949.70 1039.90 1058.86 1283.95 1295.91 1338.08 1352.06 1359.05 1367.08
 1368.68 1377.77 1388.41 1400.82 1425.47 1459.71


--------------------------------------------------------------------------------
  K point     85 =   0.187500  0.312500  0.562500  Weight =    0.004
--------------------------------------------------------------------------------

  Frequencies (cm-1) [NB: Negative implies an imaginary mode]:

  589.73  636.53  700.28  741.41  812.84  830.21  866.38  870.53  898.64
  949.70 1039.90 1058.86 1283.95 1295.91 1338.08 1352.06 1359.05 1367.08
 1368.68 1377.77 1388.41 1400.82 1425.47 1459.71


--------------------------------------------------------------------------------
  K point     86 =   0.187500  0.312500  0.687500  Weight =    0.004
--------------------------------------------------------------------------------

  Frequencies (cm-1) [NB: Negative implies an imaginary mode]:

  499.77  538.59  770.55  810.20  810.20  849.05  849.05  861.56  929.28
 1014.55 1014.55 1065.71 1272.73 1307.62 1307.62 1317.21 1355.30 1355.30
 1366.06 1381.86 1381.86 1417.35 1423.79 1480.55


--------------------------------------------------------------------------------
  K point     87 =   0.187500  0.312500  0.812500  Weight =    0.004
--------------------------------------------------------------------------------

  Frequencies (cm-1) [NB: Negative implies an imaginary mode]:

  444.78  465.03  672.50  815.29  838.71  900.58  900.58  956.51  956.51
  988.72 1057.78 1057.78 1257.76 1257.76 1311.16 1311.16 1316.37 1346.96
 1356.98 1356.98 1394.75 1440.76 1441.45 1489.07


--------------------------------------------------------------------------------
  K point     88 =   0.187500  0.312500  0.937500  Weight =    0.004
--------------------------------------------------------------------------------

  Frequencies (cm-1) [NB: Negative implies an imaginary mode]:

  403.20  458.40  594.67  815.83  841.99  933.75  956.78  970.57  972.00
 1042.98 1043.77 1078.39 1210.06 1244.29 1264.67 1319.13 1320.49 1342.01
 1344.58 1350.27 1401.26 1450.10 1457.25 1489.03


--------------------------------------------------------------------------------
  K point     89 =   0.187500  0.437500  0.062500  Weight =    0.004
--------------------------------------------------------------------------------

  Frequencies (cm-1) [NB: Negative implies an imaginary mode]:

  541.56  589.67  682.61  719.31  730.49  857.51  935.16  940.66  993.38
 1017.68 1041.78 1058.64 1215.96 1229.91 1296.88 1321.44 1346.37 1354.81
 1374.78 1388.80 1417.72 1427.45 1440.42 1469.76


--------------------------------------------------------------------------------
  K point     90 =   0.187500  0.437500  0.187500  Weight =    0.004
--------------------------------------------------------------------------------

  Frequencies (cm-1) [NB: Negative implies an imaginary mode]:

  568.17  583.54  702.63  704.20  790.40  893.93  893.93  897.75  947.36
  947.36 1061.23 1061.23 1254.12 1254.12 1324.59 1324.59 1355.42 1355.42
 1367.58 1383.87 1409.64 1414.33 1436.07 1468.57


--------------------------------------------------------------------------------
  K point     91 =   0.187500  0.437500  0.312500  Weight =    0.004
--------------------------------------------------------------------------------

  Frequencies (cm-1) [NB: Negative implies an imaginary mode]:

  589.73  636.53  700.28  741.41  812.84  830.21  866.38  870.53  898.64
  949.70 1039.90 1058.86 1283.95 1295.91 1338.08 1352.06 1359.05 1367.08
 1368.68 1377.77 1388.41 1400.82 1425.47 1459.71


--------------------------------------------------------------------------------
  K point     92 =   0.187500  0.437500  0.437500  Weight =    0.004
--------------------------------------------------------------------------------

  Frequencies (cm-1) [NB: Negative implies an imaginary mode]:

  642.50  710.51  722.10  722.10  768.17  790.84  790.84  845.24  938.87
  998.43  998.43 1036.54 1309.00 1331.53 1331.53 1356.81 1361.77 1369.75
 1369.75 1385.11 1386.48 1407.83 1407.83 1439.66


--------------------------------------------------------------------------------
  K point     93 =   0.187500  0.437500  0.562500  Weight =    0.004
--------------------------------------------------------------------------------

  Frequencies (cm-1) [NB: Negative implies an imaginary mode]:

  642.50  710.51  722.10  722.10  768.17  790.84  790.84  845.24  938.87
  998.43  998.43 1036.54 1309.00 1331.53 1331.53 1356.81 1361.77 1369.75
 1369.75 1385.11 1386.48 1407.83 1407.83 1439.66


--------------------------------------------------------------------------------
  K point     94 =   0.187500  0.437500  0.687500  Weight =    0.004
--------------------------------------------------------------------------------

  Frequencies (cm-1) [NB: Negative implies an imaginary mode]:

  589.73  636.53  700.28  741.41  812.84  830.21  866.38  870.53  898.64
  949.70 1039.90 1058.86 1283.95 1295.91 1338.08 1352.06 1359.05 1367.08
 1368.68 1377.77 1388.41 1400.82 1425.47 1459.71


--------------------------------------------------------------------------------
  K point     95 =   0.187500  0.437500  0.812500  Weight =    0.004
--------------------------------------------------------------------------------

  Frequencies (cm-1) [NB: Negative implies an imaginary mode]:

  568.17  583.54  702.63  704.20  790.40  893.93  893.93  897.75  947.36
  947.36 1061.23 1061.23 1254.12 1254.12 1324.59 1324.59 1355.42 1355.42
 1367.58 1383.87 1409.64 1414.33 1436.07 1468.57


--------------------------------------------------------------------------------
  K point     96 =   0.187500  0.437500  0.937500  Weight =    0.004
--------------------------------------------------------------------------------

  Frequencies (cm-1) [NB: Negative implies an imaginary mode]:

  541.56  589.67  682.61  719.31  730.49  857.51  935.16  940.66  993.38
 1017.68 1041.78 1058.64 1215.96 1229.91 1296.88 1321.44 1346.37 1354.81
 1374.78 1388.80 1417.72 1427.45 1440.42 1469.76


--------------------------------------------------------------------------------
  K point     97 =   0.187500  0.562500  0.062500  Weight =    0.004
--------------------------------------------------------------------------------

  Frequencies (cm-1) [NB: Negative implies an imaginary mode]:

  541.56  589.67  682.61  719.31  730.49  857.51  935.16  940.66  993.38
 1017.68 1041.78 1058.64 1215.96 1229.91 1296.88 1321.44 1346.37 1354.81
 1374.78 1388.80 1417.72 1427.45 1440.42 1469.76


--------------------------------------------------------------------------------
  K point     98 =   0.187500  0.562500  0.187500  Weight =    0.004
--------------------------------------------------------------------------------

  Frequencies (cm-1) [NB: Negative implies an imaginary mode]:

  568.17  583.54  702.63  704.20  790.40  893.93  893.93  897.75  947.36
  947.36 1061.23 1061.23 1254.12 1254.12 1324.59 1324.59 1355.42 1355.42
 1367.58 1383.87 1409.64 1414.33 1436.07 1468.57


--------------------------------------------------------------------------------
  K point     99 =   0.187500  0.562500  0.312500  Weight =    0.004
--------------------------------------------------------------------------------

  Frequencies (cm-1) [NB: Negative implies an imaginary mode]:

  589.73  636.53  700.28  741.41  812.84  830.21  866.38  870.53  898.64
  949.70 1039.90 1058.86 1283.95 1295.91 1338.08 1352.06 1359.05 1367.08
 1368.68 1377.77 1388.41 1400.82 1425.47 1459.71


--------------------------------------------------------------------------------
  K point    100 =   0.187500  0.562500  0.437500  Weight =    0.004
--------------------------------------------------------------------------------

  Frequencies (cm-1) [NB: Negative implies an imaginary mode]:

  642.50  710.51  722.10  722.10  768.17  790.84  790.84  845.24  938.87
  998.43  998.43 1036.54 1309.00 1331.53 1331.53 1356.81 1361.77 1369.75
 1369.75 1385.11 1386.48 1407.83 1407.83 1439.66


--------------------------------------------------------------------------------
  K point    101 =   0.187500  0.562500  0.562500  Weight =    0.004
--------------------------------------------------------------------------------

  Frequencies (cm-1) [NB: Negative implies an imaginary mode]:

  642.50  710.51  722.10  722.10  768.17  790.84  790.84  845.24  938.87
  998.43  998.43 1036.54 1309.00 1331.53 1331.53 1356.81 1361.77 1369.75
 1369.75 1385.11 1386.48 1407.83 1407.83 1439.66


--------------------------------------------------------------------------------
  K point    102 =   0.187500  0.562500  0.687500  Weight =    0.004
--------------------------------------------------------------------------------

  Frequencies (cm-1) [NB: Negative implies an imaginary mode]:

  589.73  636.53  700.28  741.41  812.84  830.21  866.38  870.53  898.64
  949.70 1039.90 1058.86 1283.95 1295.91 1338.08 1352.06 1359.05 1367.08
 1368.68 1377.77 1388.41 1400.82 1425.47 1459.71


--------------------------------------------------------------------------------
  K point    103 =   0.187500  0.562500  0.812500  Weight =    0.004
--------------------------------------------------------------------------------

  Frequencies (cm-1) [NB: Negative implies an imaginary mode]:

  568.17  583.54  702.63  704.20  790.40  893.93  893.93  897.75  947.36
  947.36 1061.23 1061.23 1254.12 1254.12 1324.59 1324.59 1355.42 1355.42
 1367.58 1383.87 1409.64 1414.33 1436.07 1468.57


--------------------------------------------------------------------------------
  K point    104 =   0.187500  0.562500  0.937500  Weight =    0.004
--------------------------------------------------------------------------------

  Frequencies (cm-1) [NB: Negative implies an imaginary mode]:

  541.56  589.67  682.61  719.31  730.49  857.51  935.16  940.66  993.38
 1017.68 1041.78 1058.64 1215.96 1229.91 1296.88 1321.44 1346.37 1354.81
 1374.78 1388.80 1417.72 1427.45 1440.42 1469.76


--------------------------------------------------------------------------------
  K point    105 =   0.187500  0.687500  0.062500  Weight =    0.004
--------------------------------------------------------------------------------

  Frequencies (cm-1) [NB: Negative implies an imaginary mode]:

  403.20  458.40  594.67  815.83  841.99  933.75  956.78  970.57  972.00
 1042.98 1043.77 1078.39 1210.06 1244.29 1264.67 1319.13 1320.49 1342.01
 1344.58 1350.27 1401.26 1450.10 1457.25 1489.03


--------------------------------------------------------------------------------
[...]
--------------------------------------------------------------------------------
  Zero point energy            =        1.632946 eV
  Entropy                      =        0.000001 eV/K
                               =        0.141950 J/(mol.K)
  Helmholtz free-energy        =      -57.258328 eV
                               =    -5524.552871 kJmol-1
  Free energy (equipartition)  =      -58.447036 eV
  - T*S       (equipartition)  =        0.299444 eV
  Uvib        (equipartition)  =        0.144771 eV
  Mean kinetic energy          =        0.816513 eV
  Heat capacity - const volume =        0.000005 eV/K
                               =        0.461522 J/(mol.K)
--------------------------------------------------------------------------------
  Phonon properties (per mole of unit cells): Temperature =     80.000 K
--------------------------------------------------------------------------------
  Zero point energy            =        1.632946 eV
  Entropy                      =        0.000002 eV/K
                               =        0.218397 J/(mol.K)
  Helmholtz free-energy        =      -57.258346 eV
                               =    -5524.554655 kJmol-1
  Free energy (equipartition)  =      -58.405670 eV
  - T*S       (equipartition)  =        0.320128 eV
  Uvib        (equipartition)  =        0.165453 eV
  Mean kinetic energy          =        0.816543 eV
  Heat capacity - const volume =        0.000007 eV/K
                               =        0.700621 J/(mol.K)
--------------------------------------------------------------------------------
  Phonon properties (per mole of unit cells): Temperature =     90.000 K
--------------------------------------------------------------------------------
  Zero point energy            =        1.632946 eV
  Entropy                      =        0.000003 eV/K
                               =        0.318409 J/(mol.K)
  Helmholtz free-energy        =      -57.258374 eV
                               =    -5524.557317 kJmol-1
  Free energy (equipartition)  =      -58.366896 eV
  - T*S       (equipartition)  =        0.338221 eV
  Uvib        (equipartition)  =        0.186134 eV
  Mean kinetic energy          =        0.816587 eV
  Heat capacity - const volume =        0.000011 eV/K
                               =        1.018187 J/(mol.K)
--------------------------------------------------------------------------------
  Phonon properties (per mole of unit cells): Temperature =    100.000 K
--------------------------------------------------------------------------------
  Zero point energy            =        1.632946 eV
  Entropy                      =        0.000005 eV/K
                               =        0.446101 J/(mol.K)
  Helmholtz free-energy        =      -57.258413 eV
                               =    -5524.561115 kJmol-1
  Free energy (equipartition)  =      -58.330424 eV
  - T*S       (equipartition)  =        0.354010 eV
  Uvib        (equipartition)  =        0.206816 eV
  Mean kinetic energy          =        0.816650 eV
  Heat capacity - const volume =        0.000015 eV/K
                               =        1.430007 J/(mol.K)
--------------------------------------------------------------------------------
  Phonon properties (per mole of unit cells): Temperature =    110.000 K
--------------------------------------------------------------------------------
  Zero point energy            =        1.632946 eV
  Entropy                      =        0.000006 eV/K
                               =        0.605950 J/(mol.K)
  Helmholtz free-energy        =      -57.258467 eV
                               =    -5524.566347 kJmol-1
  Free energy (equipartition)  =      -58.296025 eV
  - T*S       (equipartition)  =        0.367729 eV
  Uvib        (equipartition)  =        0.227498 eV
  Mean kinetic energy          =        0.816737 eV
  Heat capacity - const volume =        0.000020 eV/K
                               =        1.952339 J/(mol.K)
--------------------------------------------------------------------------------
  Phonon properties (per mole of unit cells): Temperature =    120.000 K
--------------------------------------------------------------------------------
  Zero point energy            =        1.632946 eV
  Entropy                      =        0.000008 eV/K
                               =        0.802657 J/(mol.K)
  Helmholtz free-energy        =      -57.258540 eV
                               =    -5524.573357 kJmol-1
  Free energy (equipartition)  =      -58.263508 eV
  - T*S       (equipartition)  =        0.379564 eV
  Uvib        (equipartition)  =        0.248179 eV
  Mean kinetic energy          =        0.816855 eV
  Heat capacity - const volume =        0.000027 eV/K
                               =        2.600657 J/(mol.K)
--------------------------------------------------------------------------------
  Phonon properties (per mole of unit cells): Temperature =    130.000 K
--------------------------------------------------------------------------------
  Zero point energy            =        1.632946 eV
  Entropy                      =        0.000011 eV/K
                               =        1.040962 J/(mol.K)
  Helmholtz free-energy        =      -57.258635 eV
                               =    -5524.582538 kJmol-1
  Free energy (equipartition)  =      -58.232716 eV
  - T*S       (equipartition)  =        0.389674 eV
  Uvib        (equipartition)  =        0.268861 eV
  Mean kinetic energy          =        0.817009 eV
  Heat capacity - const volume =        0.000035 eV/K
                               =        3.388530 J/(mol.K)
--------------------------------------------------------------------------------
  Phonon properties (per mole of unit cells): Temperature =    140.000 K
--------------------------------------------------------------------------------
  Zero point energy            =        1.632946 eV
  Entropy                      =        0.000014 eV/K
                               =        1.325461 J/(mol.K)
  Helmholtz free-energy        =      -57.258757 eV
                               =    -5524.594330 kJmol-1
  Free energy (equipartition)  =      -58.203517 eV
  - T*S       (equipartition)  =        0.398191 eV
  Uvib        (equipartition)  =        0.289542 eV
  Mean kinetic energy          =        0.817208 eV
  Heat capacity - const volume =        0.000045 eV/K
                               =        4.326851 J/(mol.K)
--------------------------------------------------------------------------------
  Phonon properties (per mole of unit cells): Temperature =    150.000 K
--------------------------------------------------------------------------------
  Zero point energy            =        1.632946 eV
  Entropy                      =        0.000017 eV/K
                               =        1.660450 J/(mol.K)
  Helmholtz free-energy        =      -57.258912 eV
                               =    -5524.609216 kJmol-1
  Free energy (equipartition)  =      -58.175796 eV
  - T*S       (equipartition)  =        0.405230 eV
  Uvib        (equipartition)  =        0.310224 eV
  Mean kinetic energy          =        0.817460 eV
  Heat capacity - const volume =        0.000056 eV/K
                               =        5.423455 J/(mol.K)
--------------------------------------------------------------------------------
  Phonon properties (per mole of unit cells): Temperature =    160.000 K
--------------------------------------------------------------------------------
  Zero point energy            =        1.632946 eV
  Entropy                      =        0.000021 eV/K
                               =        2.049797 J/(mol.K)
  Helmholtz free-energy        =      -57.259104 eV
                               =    -5524.627720 kJmol-1
  Free energy (equipartition)  =      -58.149455 eV
  - T*S       (equipartition)  =        0.410890 eV
  Uvib        (equipartition)  =        0.330906 eV
  Mean kinetic energy          =        0.817773 eV
  Heat capacity - const volume =        0.000069 eV/K
                               =        6.683057 J/(mol.K)
--------------------------------------------------------------------------------
  Phonon properties (per mole of unit cells): Temperature =    170.000 K
--------------------------------------------------------------------------------
  Zero point energy            =        1.632946 eV
  Entropy                      =        0.000026 eV/K
                               =        2.496862 J/(mol.K)
  Helmholtz free-energy        =      -57.259339 eV
                               =    -5524.650404 kJmol-1
  Free energy (equipartition)  =      -58.124408 eV
  - T*S       (equipartition)  =        0.415255 eV
  Uvib        (equipartition)  =        0.351587 eV
  Mean kinetic energy          =        0.818156 eV
  Heat capacity - const volume =        0.000084 eV/K
                               =        8.107392 J/(mol.K)
--------------------------------------------------------------------------------
  Phonon properties (per mole of unit cells): Temperature =    180.000 K
--------------------------------------------------------------------------------
  Zero point energy            =        1.632946 eV
  Entropy                      =        0.000031 eV/K
                               =        3.004448 J/(mol.K)
  Helmholtz free-energy        =      -57.259623 eV
                               =    -5524.677859 kJmol-1
  Free energy (equipartition)  =      -58.100578 eV
  - T*S       (equipartition)  =        0.418404 eV
  Uvib        (equipartition)  =        0.372269 eV
  Mean kinetic energy          =        0.818616 eV
  Heat capacity - const volume =        0.000100 eV/K
                               =        9.695477 J/(mol.K)
--------------------------------------------------------------------------------
  Phonon properties (per mole of unit cells): Temperature =    190.000 K
--------------------------------------------------------------------------------
  Zero point energy            =        1.632946 eV
  Entropy                      =        0.000037 eV/K
                               =        3.574784 J/(mol.K)
  Helmholtz free-energy        =      -57.259964 eV
                               =    -5524.710703 kJmol-1
  Free energy (equipartition)  =      -58.077897 eV
  - T*S       (equipartition)  =        0.420403 eV
  Uvib        (equipartition)  =        0.392951 eV
  Mean kinetic energy          =        0.819163 eV
  Heat capacity - const volume =        0.000119 eV/K
                               =       11.443909 J/(mol.K)
--------------------------------------------------------------------------------
  Phonon properties (per mole of unit cells): Temperature =    200.000 K
--------------------------------------------------------------------------------
  Zero point energy            =        1.632946 eV
  Entropy                      =        0.000044 eV/K
                               =        4.209528 J/(mol.K)
  Helmholtz free-energy        =      -57.260366 eV
                               =    -5524.749570 kJmol-1
  Free energy (equipartition)  =      -58.056306 eV
  - T*S       (equipartition)  =        0.421313 eV
  Uvib        (equipartition)  =        0.413632 eV
  Mean kinetic energy          =        0.819805 eV
  Heat capacity - const volume =        0.000138 eV/K
                               =       13.347191 J/(mol.K)
--------------------------------------------------------------------------------
  Phonon properties (per mole of unit cells): Temperature =    210.000 K
--------------------------------------------------------------------------------
  Zero point energy            =        1.632946 eV
  Entropy                      =        0.000051 eV/K
                               =        4.909780 J/(mol.K)
  Helmholtz free-energy        =      -57.260838 eV
                               =    -5524.795111 kJmol-1
  Free energy (equipartition)  =      -58.035749 eV
  - T*S       (equipartition)  =        0.421188 eV
  Uvib        (equipartition)  =        0.434314 eV
  Mean kinetic energy          =        0.820549 eV
  Heat capacity - const volume =        0.000160 eV/K
                               =       15.398045 J/(mol.K)
--------------------------------------------------------------------------------
  Phonon properties (per mole of unit cells): Temperature =    220.000 K
--------------------------------------------------------------------------------
  Zero point energy            =        1.632946 eV
  Entropy                      =        0.000059 eV/K
                               =        5.676115 J/(mol.K)
  Helmholtz free-energy        =      -57.261386 eV
                               =    -5524.847986 kJmol-1
  Free energy (equipartition)  =      -58.016177 eV
  - T*S       (equipartition)  =        0.420078 eV
  Uvib        (equipartition)  =        0.454995 eV
  Mean kinetic energy          =        0.821403 eV
  Heat capacity - const volume =        0.000182 eV/K
                               =       17.587723 J/(mol.K)
--------------------------------------------------------------------------------
  Phonon properties (per mole of unit cells): Temperature =    230.000 K
--------------------------------------------------------------------------------
  Zero point energy            =        1.632946 eV
  Entropy                      =        0.000067 eV/K
                               =        6.508613 J/(mol.K)
  Helmholtz free-energy        =      -57.262017 eV
                               =    -5524.908854 kJmol-1
  Free energy (equipartition)  =      -57.997546 eV
  - T*S       (equipartition)  =        0.418028 eV
  Uvib        (equipartition)  =        0.475677 eV
  Mean kinetic energy          =        0.822374 eV
  Heat capacity - const volume =        0.000206 eV/K
                               =       19.906300 J/(mol.K)
--------------------------------------------------------------------------------
  Phonon properties (per mole of unit cells): Temperature =    240.000 K
--------------------------------------------------------------------------------
  Zero point energy            =        1.632946 eV
  Entropy                      =        0.000077 eV/K
                               =        7.406902 J/(mol.K)
  Helmholtz free-energy        =      -57.262738 eV
                               =    -5524.978377 kJmol-1
  Free energy (equipartition)  =      -57.979814 eV
  - T*S       (equipartition)  =        0.415078 eV
  Uvib        (equipartition)  =        0.496359 eV
  Mean kinetic energy          =        0.823469 eV
  Heat capacity - const volume =        0.000232 eV/K
                               =       22.342958 J/(mol.K)
--------------------------------------------------------------------------------
  Phonon properties (per mole of unit cells): Temperature =    250.000 K
--------------------------------------------------------------------------------
  Zero point energy            =        1.632946 eV
  Entropy                      =        0.000087 eV/K
                               =        8.370201 J/(mol.K)
  Helmholtz free-energy        =      -57.263555 eV
                               =    -5525.057209 kJmol-1
  Free energy (equipartition)  =      -57.962944 eV
  - T*S       (equipartition)  =        0.411267 eV
  Uvib        (equipartition)  =        0.517040 eV
  Mean kinetic energy          =        0.824692 eV
  Heat capacity - const volume =        0.000258 eV/K
                               =       24.886250 J/(mol.K)
--------------------------------------------------------------------------------
  Phonon properties (per mole of unit cells): Temperature =    260.000 K
--------------------------------------------------------------------------------
  Zero point energy            =        1.632946 eV
  Entropy                      =        0.000097 eV/K
                               =        9.397363 J/(mol.K)
  Helmholtz free-energy        =      -57.264475 eV
                               =    -5525.145994 kJmol-1
  Free energy (equipartition)  =      -57.946901 eV
  - T*S       (equipartition)  =        0.406628 eV
  Uvib        (equipartition)  =        0.537722 eV
  Mean kinetic energy          =        0.826050 eV
  Heat capacity - const volume =        0.000285 eV/K
                               =       27.524347 J/(mol.K)
--------------------------------------------------------------------------------
  Phonon properties (per mole of unit cells): Temperature =    270.000 K
--------------------------------------------------------------------------------
  Zero point energy            =        1.632946 eV
  Entropy                      =        0.000109 eV/K
                               =       10.486921 J/(mol.K)
  Helmholtz free-energy        =      -57.265505 eV
                               =    -5525.245364 kJmol-1
  Free energy (equipartition)  =      -57.931655 eV
  - T*S       (equipartition)  =        0.401193 eV
  Uvib        (equipartition)  =        0.558403 eV
  Mean kinetic energy          =        0.827546 eV
  Heat capacity - const volume =        0.000313 eV/K
                               =       30.245259 J/(mol.K)
--------------------------------------------------------------------------------
  Phonon properties (per mole of unit cells): Temperature =    280.000 K
--------------------------------------------------------------------------------
  Zero point energy            =        1.632946 eV
  Entropy                      =        0.000121 eV/K
                               =       11.637130 J/(mol.K)
  Helmholtz free-energy        =      -57.266651 eV
                               =    -5525.355935 kJmol-1
  Free energy (equipartition)  =      -57.917174 eV
  - T*S       (equipartition)  =        0.394992 eV
  Uvib        (equipartition)  =        0.579085 eV
  Mean kinetic energy          =        0.829185 eV
  Heat capacity - const volume =        0.000342 eV/K
                               =       33.037037 J/(mol.K)
--------------------------------------------------------------------------------
  Phonon properties (per mole of unit cells): Temperature =    290.000 K
--------------------------------------------------------------------------------
  Zero point energy            =        1.632946 eV
  Entropy                      =        0.000133 eV/K
                               =       12.846016 J/(mol.K)
  Helmholtz free-energy        =      -57.267919 eV
                               =    -5525.478303 kJmol-1
  Free energy (equipartition)  =      -57.903432 eV
  - T*S       (equipartition)  =        0.388052 eV
  Uvib        (equipartition)  =        0.599767 eV
  Mean kinetic energy          =        0.830971 eV
  Heat capacity - const volume =        0.000372 eV/K
                               =       35.887936 J/(mol.K)
--------------------------------------------------------------------------------

  Time to end of properties =       1.3008 seconds


  Peak dynamic memory used =       0.67 MB 


  Timing analysis for GULP :

--------------------------------------------------------------------------------
  Task / Subroutine                                          Time (Seconds)
--------------------------------------------------------------------------------
  Calculation of real space energy and derivatives                0.0005
  Calculation of Brenner energy and derivatives                   1.2623
  Calculation of phonons                                          1.2886
  Disk read/write operations to scratch files                     0.0055
--------------------------------------------------------------------------------
  Total CPU time                                                  1.3008
--------------------------------------------------------------------------------


  Job Finished at 18:11.04 14th August     2020                               

