********************************************************************************
*                       GENERAL UTILITY LATTICE PROGRAM                        *
*                                 Julian Gale                                  *
*                       Curtin Institute for Computation                       *
*                    School of Molecular and Life Sciences                     *
*                    Curtin University, Western Australia                      *
********************************************************************************
* Version = 5.2.0 * Last modified =  17th December 2019                        *
********************************************************************************
*  optimise     - perform optimisation run                                     *
*  conp         - constant pressure calculation                                *
*  isotropic    - only isotropic cell expansion to be allowed                  *
*  rfo          - optimisation step to be determined by RFO method             *
********************************************************************************
* ASE calculation                                                              *
********************************************************************************


  Job Started  at 16:20.00 12th August     2020                               

  Number of CPUs =     1


  Total number of configurations input =      1

********************************************************************************
*  Input for Configuration =   1                                               *
********************************************************************************

  Formula = C64                                                         

  Number of irreducible atoms/shells =      64


  Total number atoms/shells =      64

  Dimensionality = 3               :  Bulk   



  Cartesian lattice vectors (Angstroms) :

        7.090300    0.000000    0.000000
        0.000000    7.090300    0.000000
        0.000000    0.000000    7.090300

  Cell parameters (Angstroms/Degrees):

  a =       7.0903    alpha =  90.0000
  b =       7.0903    beta  =  90.0000
  c =       7.0903    gamma =  90.0000

  Initial cell volume =         356.446072 Angs**3

  Temperature of configuration =   0.00     K 

  Pressure of configuration =         0.000 GPa 

  Fractional coordinates of asymmetric unit :

--------------------------------------------------------------------------------
   No.  Atomic       x           y          z         Charge      Occupancy
        Label      (Frac)      (Frac)     (Frac)        (e)         (Frac)  
--------------------------------------------------------------------------------
      1 C     c    0.082860    0.546420    0.420470     0.00000    1.000000    
      2 C     c    0.285170 *  0.121530 *  0.115350 *   0.00000    1.000000    
      3 C     c    0.156010 *  0.398820 *  0.315630 *   0.00000    1.000000    
      4 C     c    0.894980 *  0.936660 *  0.435670 *   0.00000    1.000000    
      5 C     c    0.470790 *  0.914090 *  0.977570 *   0.00000    1.000000    
      6 C     c    0.823980 *  0.471800 *  0.211880 *   0.00000    1.000000    
      7 C     c    0.971300 *  0.634300 *  0.693970 *   0.00000    1.000000    
      8 C     c    0.845190 *  0.541410 *  0.569460 *   0.00000    1.000000    
      9 C     c    0.144700 *  0.359780 *  0.623950 *   0.00000    1.000000    
     10 C     c    0.394740 *  0.753420 *  0.117160 *   0.00000    1.000000    
     11 C     c    0.903240 *  0.255150 *  0.746160 *   0.00000    1.000000    
     12 C     c    0.575490 *  0.933190 *  0.519410 *   0.00000    1.000000    
     13 C     c    0.444940 *  0.219390 *  0.615260 *   0.00000    1.000000    
     14 C     c    0.183540 *  0.977210 *  0.815170 *   0.00000    1.000000    
     15 C     c    0.553680 *  0.583780 *  0.395540 *   0.00000    1.000000    
     16 C     c    0.994410 *  0.939930 *  0.133790 *   0.00000    1.000000    
     17 C     c    0.174030 *  0.798250 *  0.895930 *   0.00000    1.000000    
     18 C     c    0.335180 *  0.707910 *  0.613940 *   0.00000    1.000000    
     19 C     c    0.755370 *  0.373950 *  0.660700 *   0.00000    1.000000    
     20 C     c    0.068390 *  0.229540 *  0.305750 *   0.00000    1.000000    
     21 C     c    0.895850 *  0.159270 *  0.410480 *   0.00000    1.000000    
     22 C     c    0.878850 *  0.595780 *  0.367540 *   0.00000    1.000000    
     23 C     c    0.463350 *  0.861880 *  0.658040 *   0.00000    1.000000    
     24 C     c    0.802250 *  0.263850 *  0.223790 *   0.00000    1.000000    
     25 C     c    0.702550 *  0.178540 *  0.053950 *   0.00000    1.000000    
     26 C     c    0.506720 *  0.584020 *  0.059060 *   0.00000    1.000000    
     27 C     c    0.626750 *  0.266630 *  0.534550 *   0.00000    1.000000    
     28 C     c    0.637720 *  0.987120 *  0.106670 *   0.00000    1.000000    
     29 C     c    0.490780 *  0.894370 *  0.254940 *   0.00000    1.000000    
     30 C     c    0.337120 *  0.063210 *  0.924000 *   0.00000    1.000000    
     31 C     c    0.827040 *  0.107060 *  0.895040 *   0.00000    1.000000    
     32 C     c    0.910530 *  0.786370 *  0.797930 *   0.00000    1.000000    
     33 C     c    0.325010 *  0.377510 *  0.552950 *   0.00000    1.000000    
     34 C     c    0.220210 *  0.669740 *  0.210110 *   0.00000    1.000000    
     35 C     c    0.108130 *  0.493250 *  0.778050 *   0.00000    1.000000    
     36 C     c    0.332490 *  0.070770 *  0.518540 *   0.00000    1.000000    
     37 C     c    0.201800 *  0.723580 *  0.438700 *   0.00000    1.000000    
     38 C     c    0.563010 *  0.305950 *  0.948650 *   0.00000    1.000000    
     39 C     c    0.077350 *  0.130290 *  0.122480 *   0.00000    1.000000    
     40 C     c    0.773260 *  0.944240 *  0.784100 *   0.00000    1.000000    
     41 C     c    0.412740 *  0.541280 *  0.511670 *   0.00000    1.000000    
     42 C     c    0.076030 *  0.873970 *  0.501690 *   0.00000    1.000000    
     43 C     c    0.068410 *  0.431000 *  0.970970 *   0.00000    1.000000    
     44 C     c    0.220220 *  0.464650 *  0.123520 *   0.00000    1.000000    
     45 C     c    0.237430 *  0.655790 *  0.784910 *   0.00000    1.000000    
     46 C     c    0.911670 *  0.543230 *  0.043400 *   0.00000    1.000000    
     47 C     c    0.799040 *  0.859250 *  0.121440 *   0.00000    1.000000    
     48 C     c    0.005430 *  0.229690 *  0.956530 *   0.00000    1.000000    
     49 C     c    0.806710 *  0.787000 *  0.321920 *   0.00000    1.000000    
     50 C     c    0.816540 *  0.710750 *  0.972590 *   0.00000    1.000000    
     51 C     c    0.155860 *  0.023610 *  0.619600 *   0.00000    1.000000    
     52 C     c    0.458630 *  0.230210 *  0.242530 *   0.00000    1.000000    
     53 C     c    0.406750 *  0.379250 *  0.083730 *   0.00000    1.000000    
     54 C     c    0.363130 *  0.043270 *  0.317660 *   0.00000    1.000000    
     55 C     c    0.632760 *  0.244100 *  0.351000 *   0.00000    1.000000    
     56 C     c    0.446120 *  0.197180 *  0.817700 *   0.00000    1.000000    
     57 C     c    0.649700 *  0.447690 *  0.824820 *   0.00000    1.000000    
     58 C     c    0.747850 *  0.002010 *  0.584370 *   0.00000    1.000000    
     59 C     c    0.117750 *  0.796330 *  0.080260 *   0.00000    1.000000    
     60 C     c    0.613180 *  0.500510 *  0.228720 *   0.00000    1.000000    
     61 C     c    0.609800 *  0.780280 *  0.383300 *   0.00000    1.000000    
     62 C     c    0.026040 *  0.187010 *  0.591830 *   0.00000    1.000000    
     63 C     c    0.627360 *  0.638370 *  0.898800 *   0.00000    1.000000    
     64 C     c    0.582320 *  0.835840 *  0.820910 *   0.00000    1.000000    
--------------------------------------------------------------------------------


  Constraints : 

--------------------------------------------------------------------------------
  Constraint no.      Unconstrained     Constrained    Coefficient    Offset
                         Variable         Variable
--------------------------------------------------------------------------------
           1              Strain 1        Strain 2       1.00000      0.0000
           2              Strain 1        Strain 3       1.00000      0.0000
--------------------------------------------------------------------------------


********************************************************************************
*  General input information                                                   *
********************************************************************************

  Species output for all configurations : 

--------------------------------------------------------------------------------
  Species    Type    Atomic    Atomic    Charge       Radii (Angs)     Library
                     Number     Mass       (e)     Cova   Ionic  VDW   Symbol
--------------------------------------------------------------------------------
    C        Core        6      12.01   0.000000   0.770  0.000  1.530          
--------------------------------------------------------------------------------


  Lattice summation method               =    Ewald          (3-D)
                                         =    Parry          (2-D)
                                         =    Saunders et al (1-D)
  Accuracy factor for lattice sums       =   12.000


  Analytic derivatives to be used

  Time limit = Infinity

  Maximum range for interatomic potentials =    100000.000000 Angstroms

  Brenner et al 2002 potential to be used with explicit splines for P


********************************************************************************
*  Output for configuration   1                                                *
********************************************************************************


  Components of energy : 

--------------------------------------------------------------------------------
  Interatomic potentials     =           0.00000000 eV    
  Brenner potentials         =        -413.03542005 eV    
  Monopole - monopole (real) =           0.00000000 eV    
  Monopole - monopole (recip)=           0.00000000 eV    
  Monopole - monopole (total)=           0.00000000 eV    
--------------------------------------------------------------------------------
  Total lattice energy       =        -413.03542005 eV    
--------------------------------------------------------------------------------
  Total lattice energy       =          -39851.6042 kJ/(mole unit cells)
--------------------------------------------------------------------------------


  Number of variables =      190

  Maximum number of calculations  =          2000
  Maximum Hessian update interval =            10
  Maximum step size               =   1.000000000
  Maximum parameter tolerance     =   0.000010000
  Maximum function  tolerance     =   0.000010000
  Maximum gradient  tolerance     =   0.001000000
  Maximum gradient  component     =   0.010000000

  Symmetry not applied to optimisation

  Cell parameters to be optimised using strains

  RFO method to be used

  DFP hessian update to be used

  Lower half triangular hessian to be used

  Start of bulk optimisation :

  Cycle:      0 Energy:      -413.035420  Gnorm:      2.294647  CPU:    0.183
  ** Hessian has required structure
  Cycle:      1 Energy:      -421.275571  Gnorm:      1.288554  CPU:    0.274
  ** Hessian has required structure
  Cycle:      2 Energy:      -422.897731  Gnorm:      0.566397  CPU:    0.321
  ** Hessian has required structure
  Cycle:      3 Energy:      -423.623751  Gnorm:      0.299156  CPU:    0.369
  ** Hessian has required structure
  Cycle:      4 Energy:      -423.900981  Gnorm:      0.244210  CPU:    0.437
  ** Hessian has required structure
  Cycle:      5 Energy:      -424.078812  Gnorm:      0.221933  CPU:    0.482
  ** Hessian has required structure
  Cycle:      6 Energy:      -424.265360  Gnorm:      0.263291  CPU:    0.529
  ** Hessian has required structure
  Cycle:      7 Energy:      -424.402904  Gnorm:      0.291061  CPU:    0.596
  ** Hessian has required structure
  Cycle:      8 Energy:      -424.647965  Gnorm:      0.263087  CPU:    0.642
  ** Hessian has required structure
  Cycle:      9 Energy:      -424.896281  Gnorm:      0.221629  CPU:    0.712
  ** Hessian has required structure
  Cycle:     10 Energy:      -425.020712  Gnorm:      0.183375  CPU:    0.773
  ** Hessian has required structure
  Cycle:     11 Energy:      -425.230833  Gnorm:      0.168482  CPU:    0.966
  ** Hessian has required structure
  Cycle:     12 Energy:      -425.294866  Gnorm:      0.063141  CPU:    1.026
  ** Hessian has required structure
  Cycle:     13 Energy:      -425.304998  Gnorm:      0.038090  CPU:    1.087
  ** Hessian has required structure
  Cycle:     14 Energy:      -425.311406  Gnorm:      0.030210  CPU:    1.140
  ** Hessian has required structure
  Cycle:     15 Energy:      -425.315234  Gnorm:      0.016435  CPU:    1.183
  ** Hessian has required structure
  Cycle:     16 Energy:      -425.316107  Gnorm:      0.004380  CPU:    1.250
  ** Hessian has required structure
  Cycle:     17 Energy:      -425.316192  Gnorm:      0.002221  CPU:    1.298
  ** Hessian has required structure
  Cycle:     18 Energy:      -425.316205  Gnorm:      0.000780  CPU:    1.363
  ** Hessian has required structure
  Cycle:     19 Energy:      -425.316208  Gnorm:      0.000223  CPU:    1.409
  ** Hessian has required structure


  **** Optimisation achieved ****


  Final energy =    -425.31620815 eV
  Final Gnorm  =       0.00007200

  Components of energy : 

--------------------------------------------------------------------------------
  Interatomic potentials     =           0.00000000 eV    
  Brenner potentials         =        -425.31620815 eV    
  Monopole - monopole (real) =           0.00000000 eV    
  Monopole - monopole (recip)=           0.00000000 eV    
  Monopole - monopole (total)=           0.00000000 eV    
--------------------------------------------------------------------------------
  Total lattice energy       =        -425.31620815 eV    
--------------------------------------------------------------------------------
  Total lattice energy       =          -41036.5125 kJ/(mole unit cells)
--------------------------------------------------------------------------------

  Final fractional coordinates of atoms :

--------------------------------------------------------------------------------
   No.  Atomic        x           y          z          Radius
        Label       (Frac)      (Frac)     (Frac)       (Angs) 
--------------------------------------------------------------------------------
     1  C     c     0.082860    0.546420    0.420470    0.000000
     2  C     c     0.300465    0.098482    0.158048    0.000000
     3  C     c     0.135430    0.397320    0.321399    0.000000
     4  C     c     0.905491    0.925923    0.500527    0.000000
     5  C     c     0.496472    0.888329    0.033250    0.000000
     6  C     c     0.816775    0.441267    0.290229    0.000000
     7  C     c     0.945768    0.607823    0.761780    0.000000
     8  C     c     0.840317    0.519589    0.629817    0.000000
     9  C     c     0.152891    0.348159    0.688789    0.000000
    10  C     c     0.417356    0.733356    0.168124    0.000000
    11  C     c     0.912950    0.222373    0.789678    0.000000
    12  C     c     0.594658    0.873968    0.593908    0.000000
    13  C     c     0.450707    0.212818    0.666974    0.000000
    14  C     c     0.222918    0.959916    0.855437    0.000000
    15  C     c     0.544790    0.575685    0.447487    0.000000
    16  C     c     0.011879    0.923394    0.168011    0.000000
    17  C     c     0.170447    0.793092    0.921892    0.000000
    18  C     c     0.324040    0.692354    0.651932    0.000000
    19  C     c     0.762672    0.347465    0.713157    0.000000
    20  C     c     0.064924    0.226016    0.316698    0.000000
    21  C     c     0.939020    0.137232    0.452956    0.000000
    22  C     c     0.882992    0.573159    0.439876    0.000000
    23  C     c     0.483382    0.799281    0.721414    0.000000
    24  C     c     0.800218    0.235137    0.302274    0.000000
    25  C     c     0.720274    0.151945    0.111962    0.000000
    26  C     c     0.529470    0.570943    0.123164    0.000000
    27  C     c     0.623948    0.264257    0.582372    0.000000
    28  C     c     0.661497    0.958003    0.159507    0.000000
    29  C     c     0.510698    0.875201    0.296825    0.000000
    30  C     c     0.368166    0.034739    0.972168    0.000000
    31  C     c     0.838012    0.084971    0.940298    0.000000
    32  C     c     0.887016    0.741297    0.878485    0.000000
    33  C     c     0.329922    0.369222    0.625000    0.000000
    34  C     c     0.234913    0.665934    0.237206    0.000000
    35  C     c     0.097821    0.482083    0.828235    0.000000
    36  C     c     0.357297    0.059427    0.561622    0.000000
    37  C     c     0.205562    0.709375    0.458793    0.000000
    38  C     c     0.577829    0.283651    0.000198    0.000000
    39  C     c     0.096246    0.111337    0.154846    0.000000
    40  C     c     0.783297    0.916312    0.845698    0.000000
    41  C     c     0.406365    0.526902    0.561539    0.000000
    42  C     c     0.094693    0.865205    0.548260    0.000000
    43  C     c     0.072226    0.412816    0.017682    0.000000
    44  C     c     0.238245    0.455411    0.151961    0.000000
    45  C     c     0.203743    0.654416    0.807422    0.000000
    46  C     c     0.918831    0.504527    0.126225    0.000000
    47  C     c     0.828047    0.833417    0.193824    0.000000
    48  C     c     0.017557    0.212946    0.992569    0.000000
    49  C     c     0.812712    0.769567    0.389371    0.000000
    50  C     c     0.835940    0.673740    0.062606    0.000000
    51  C     c     0.185059    0.009431    0.659174    0.000000
    52  C     c     0.457628    0.216812    0.274087    0.000000
    53  C     c     0.431406    0.378368    0.134188    0.000000
    54  C     c     0.387746    0.028058    0.356608    0.000000
    55  C     c     0.620123    0.243474    0.401382    0.000000
    56  C     c     0.467293    0.174435    0.869579    0.000000
    57  C     c     0.671056    0.425454    0.885085    0.000000
    58  C     c     0.760009    0.942564    0.648254    0.000000
    59  C     c     0.130717    0.786951    0.105544    0.000000
    60  C     c     0.614628    0.488111    0.292772    0.000000
    61  C     c     0.609353    0.770251    0.432433    0.000000
    62  C     c     0.047382    0.170811    0.640761    0.000000
    63  C     c     0.654624    0.612395    0.969498    0.000000
    64  C     c     0.596995    0.795712    0.888074    0.000000
--------------------------------------------------------------------------------

  Final Cartesian lattice vectors (Angstroms) :

        7.504399    0.000000    0.000000
        0.000000    7.504399    0.000000
        0.000000    0.000000    7.504399


  Final cell parameters and derivatives :

--------------------------------------------------------------------------------
       a            7.504399 Angstrom     dE/de1(xx)    -0.001519 eV/strain
       b            7.504399 Angstrom     dE/de2(yy)     0.000000 eV/strain
       c            7.504399 Angstrom     dE/de3(zz)     0.000000 eV/strain
       alpha       90.000000 Degrees      dE/de4(yz)     0.000000 eV/strain
       beta        90.000000 Degrees      dE/de5(xz)     0.000000 eV/strain
       gamma       90.000000 Degrees      dE/de6(xy)     0.000000 eV/strain
--------------------------------------------------------------------------------

  Primitive cell volume =           422.617825 Angs**3

  Density of cell =      3.020169 g/cm**3

  Non-primitive cell volume =           422.617825 Angs**3


  Final internal derivatives :

--------------------------------------------------------------------------------
   No.  Atomic          a             b             c           Radius
        Label          (eV)          (eV)          (eV)        (eV/Angs)
--------------------------------------------------------------------------------
      1 C     c       0.000000      0.000000      0.000000      0.000000
      2 C     c      -0.000199     -0.000218     -0.000146      0.000000
      3 C     c       0.000191     -0.000686     -0.000399      0.000000
      4 C     c      -0.000399      0.001185      0.000652      0.000000
      5 C     c      -0.000047     -0.000108     -0.000093      0.000000
      6 C     c      -0.000175      0.000072      0.000290      0.000000
      7 C     c      -0.000230     -0.000006     -0.000245      0.000000
      8 C     c       0.000360      0.000139     -0.000572      0.000000
      9 C     c      -0.000119      0.000145      0.000017      0.000000
     10 C     c      -0.000298      0.000327     -0.000251      0.000000
     11 C     c       0.000525      0.000031      0.000593      0.000000
     12 C     c       0.000426      0.000082      0.002293      0.000000
     13 C     c       0.000548      0.000134      0.000047      0.000000
     14 C     c       0.000073     -0.000014      0.000058      0.000000
     15 C     c       0.000042      0.000779     -0.000069      0.000000
     16 C     c      -0.000089     -0.000112     -0.000055      0.000000
     17 C     c      -0.000556     -0.000079     -0.000075      0.000000
     18 C     c       0.001600     -0.000336      0.002312      0.000000
     19 C     c       0.000072      0.000075      0.000109      0.000000
     20 C     c      -0.000017      0.000318      0.000223      0.000000
     21 C     c       0.000360     -0.000309     -0.000073      0.000000
     22 C     c       0.000390      0.000272      0.000365      0.000000
     23 C     c       0.000250      0.000101      0.000143      0.000000
     24 C     c      -0.000541      0.000189     -0.000325      0.000000
     25 C     c       0.000012     -0.000151      0.000065      0.000000
     26 C     c       0.000287      0.000047     -0.000136      0.000000
     27 C     c      -0.000186     -0.000017      0.000092      0.000000
     28 C     c      -0.000093      0.000172      0.000049      0.000000
     29 C     c       0.000279     -0.000978     -0.000352      0.000000
     30 C     c       0.000142     -0.000216     -0.000358      0.000000
     31 C     c      -0.005336     -0.003674     -0.001552      0.000000
     32 C     c       0.000427     -0.000103      0.000158      0.000000
     33 C     c      -0.000110     -0.000097     -0.000266      0.000000
     34 C     c      -0.005170     -0.004641      0.004856      0.000000
     35 C     c       0.000131     -0.000084     -0.000011      0.000000
     36 C     c       0.000417      0.000031     -0.000090      0.000000
     37 C     c      -0.001804      0.000571     -0.000249      0.000000
     38 C     c       0.000032     -0.000008     -0.000318      0.000000
     39 C     c       0.000204      0.000261      0.000101      0.000000
     40 C     c      -0.000524      0.000015     -0.000422      0.000000
     41 C     c      -0.000240      0.000010      0.000238      0.000000
     42 C     c       0.000470     -0.000366      0.000090      0.000000
     43 C     c      -0.000011      0.000124     -0.000225      0.000000
     44 C     c      -0.000335      0.000074      0.000340      0.000000
     45 C     c       0.000150     -0.000084     -0.000304      0.000000
     46 C     c      -0.000037     -0.000034      0.000063      0.000000
     47 C     c       0.000134     -0.000209      0.000181      0.000000
     48 C     c       0.004806      0.003605      0.000640      0.000000
     49 C     c       0.000012     -0.000492     -0.000270      0.000000
     50 C     c       0.000018     -0.000200     -0.000151      0.000000
     51 C     c      -0.000089      0.000032     -0.000142      0.000000
     52 C     c       0.000421      0.000266      0.000164      0.000000
     53 C     c       0.000079     -0.000092      0.000203      0.000000
     54 C     c      -0.000112     -0.000347      0.000022      0.000000
     55 C     c       0.000209     -0.000086      0.000018      0.000000
     56 C     c      -0.000008     -0.000025      0.000320      0.000000
     57 C     c      -0.000136     -0.000099      0.000189      0.000000
     58 C     c      -0.000124     -0.000568     -0.000507      0.000000
     59 C     c       0.000121      0.000617     -0.000005      0.000000
     60 C     c       0.000231     -0.000272     -0.000008      0.000000
     61 C     c      -0.000525      0.000778     -0.000573      0.000000
     62 C     c      -0.000044     -0.000295      0.000261      0.000000
     63 C     c      -0.000103      0.000279     -0.000026      0.000000
     64 C     c      -0.000389      0.000003     -0.000665      0.000000
--------------------------------------------------------------------------------
  Maximum abs         0.005336      0.004641      0.004856      0.000000
--------------------------------------------------------------------------------


  Time to end of optimisation =       1.4570 seconds


  Peak dynamic memory used =       3.33 MB 


  Timing analysis for GULP :

--------------------------------------------------------------------------------
  Task / Subroutine                                          Time (Seconds)
--------------------------------------------------------------------------------
  Calculation of Brenner energy and derivatives                   0.5299
  Calculation and manipulation of Hessian matrix                  0.8921
--------------------------------------------------------------------------------
  Total CPU time                                                  1.4570
--------------------------------------------------------------------------------


  CIF file written as rfo.cif


  Job Finished at 16:20.02 12th August     2020                               

