********************************************************************************
*                       GENERAL UTILITY LATTICE PROGRAM                        *
*                                 Julian Gale                                  *
*                       Curtin Institute for Computation                       *
*                    School of Molecular and Life Sciences                     *
*                    Curtin University, Western Australia                      *
********************************************************************************
* Version = 5.2.0 * Last modified =  17th December 2019                        *
********************************************************************************
*  single       - perform a single point run                                   *
*  md           - perform molecular dynamics run                               *
*  conp         - constant pressure calculation                                *
*  isotropic    - only isotropic cell expansion to be allowed                  *
********************************************************************************
* ASE calculation                                                              *
********************************************************************************


  Job Started  at 14:02.15 31st July       2020                               

  Number of CPUs =     1


  Total number of configurations input =      1

********************************************************************************
*  Input for Configuration =   1                                               *
********************************************************************************

  Formula = C64                                                         

  Number of irreducible atoms/shells =      64


  Total number atoms/shells =      64

  Dimensionality = 3               :  Bulk   



  Cartesian lattice vectors (Angstroms) :

        7.090300    0.000000    0.000000
        0.000000    7.090300    0.000000
        0.000000    0.000000    7.090300

  Cell parameters (Angstroms/Degrees):

  a =       7.0903    alpha =  90.0000
  b =       7.0903    beta  =  90.0000
  c =       7.0903    gamma =  90.0000

  Initial cell volume =         356.446072 Angs**3

  Temperature of configuration =   50.0     K 

  Pressure of configuration =         0.000 GPa 

  Fractional coordinates of asymmetric unit :

--------------------------------------------------------------------------------
   No.  Atomic       x           y          z         Charge      Occupancy
        Label      (Frac)      (Frac)     (Frac)        (e)         (Frac)  
--------------------------------------------------------------------------------
      1 C     c    0.027883 *  0.588410 *  0.365133 *   0.00000    1.000000    
      2 C     c    0.252570 *  0.018109 *  0.113535 *   0.00000    1.000000    
      3 C     c    0.111124 *  0.473478 *  0.264911 *   0.00000    1.000000    
      4 C     c    0.895590 *  0.937943 *  0.435496 *   0.00000    1.000000    
      5 C     c    0.515225 *  0.919496 *  0.996643 *   0.00000    1.000000    
      6 C     c    0.829457 *  0.486199 *  0.219892 *   0.00000    1.000000    
      7 C     c    0.947393 *  0.600736 *  0.703158 *   0.00000    1.000000    
      8 C     c    0.835889 *  0.489768 *  0.543729 *   0.00000    1.000000    
      9 C     c    0.125101 *  0.365570 *  0.646658 *   0.00000    1.000000    
     10 C     c    0.443902 *  0.781970 *  0.118528 *   0.00000    1.000000    
     11 C     c    0.861557 *  0.240385 *  0.722113 *   0.00000    1.000000    
     12 C     c    0.573488 *  0.913135 *  0.555632 *   0.00000    1.000000    
     13 C     c    0.382410 *  0.244926 *  0.621850 *   0.00000    1.000000    
     14 C     c    0.249143 *  0.892318 *  0.781744 *   0.00000    1.000000    
     15 C     c    0.578523 *  0.627505 *  0.387318 *   0.00000    1.000000    
     16 C     c    0.971440 *  0.957308 *  0.086484 *   0.00000    1.000000    
     17 C     c    0.177581 *  0.740998 *  0.855831 *   0.00000    1.000000    
     18 C     c    0.347588 *  0.682566 *  0.627294 *   0.00000    1.000000    
     19 C     c    0.718869 *  0.346981 *  0.651284 *   0.00000    1.000000    
     20 C     c    0.078177 *  0.258268 *  0.294459 *   0.00000    1.000000    
     21 C     c    0.922613 *  0.131983 *  0.400434 *   0.00000    1.000000    
     22 C     c    0.868271 *  0.596223 *  0.394229 *   0.00000    1.000000    
     23 C     c    0.566549 *  0.772943 *  0.671086 *   0.00000    1.000000    
     24 C     c    0.799966 *  0.300678 *  0.338053 *   0.00000    1.000000    
     25 C     c    0.715583 *  0.193264 *  0.043369 *   0.00000    1.000000    
     26 C     c    0.481997 *  0.585067 *  0.080984 *   0.00000    1.000000    
     27 C     c    0.574447 *  0.256886 *  0.610214 *   0.00000    1.000000    
     28 C     c    0.659859 *  0.994908 *  0.057713 *   0.00000    1.000000    
     29 C     c    0.559074 *  0.979126 *  0.259636 *   0.00000    1.000000    
     30 C     c    0.354809 *  0.963499 *  0.925913 *   0.00000    1.000000    
     31 C     c    0.854449 *  0.132449 *  0.865069 *   0.00000    1.000000    
     32 C     c    0.927069 *  0.731464 *  0.812462 *   0.00000    1.000000    
     33 C     c    0.291638 *  0.397501 *  0.554137 *   0.00000    1.000000    
     34 C     c    0.280849 *  0.749023 *  0.181572 *   0.00000    1.000000    
     35 C     c    0.121165 *  0.478809 *  0.803436 *   0.00000    1.000000    
     36 C     c    0.296250 *  0.080222 *  0.502517 *   0.00000    1.000000    
     37 C     c    0.221810 *  0.723256 *  0.440743 *   0.00000    1.000000    
     38 C     c    0.525718 *  0.347461 *  0.957449 *   0.00000    1.000000    
     39 C     c    0.047530 *  0.135904 *  0.115863 *   0.00000    1.000000    
     40 C     c    0.819909 *  0.943119 *  0.812378 *   0.00000    1.000000    
     41 C     c    0.417232 *  0.555068 *  0.521233 *   0.00000    1.000000    
     42 C     c    0.082253 *  0.893996 *  0.476101 *   0.00000    1.000000    
     43 C     c    0.061648 *  0.426498 *  0.960171 *   0.00000    1.000000    
     44 C     c    0.202798 *  0.540993 *  0.116243 *   0.00000    1.000000    
     45 C     c    0.277252 *  0.551035 *  0.836199 *   0.00000    1.000000    
     46 C     c    0.906887 *  0.524999 *  0.026134 *   0.00000    1.000000    
     47 C     c    0.818315 *  0.854012 *  0.061041 *   0.00000    1.000000    
     48 C     c    0.053862 *  0.230004 *  0.934911 *   0.00000    1.000000    
     49 C     c    0.801842 *  0.831559 *  0.309789 *   0.00000    1.000000    
     50 C     c    0.794959 *  0.659366 *  0.986869 *   0.00000    1.000000    
     51 C     c    0.155692 *  0.047967 *  0.612160 *   0.00000    1.000000    
     52 C     c    0.418769 *  0.279551 *  0.238128 *   0.00000    1.000000    
     53 C     c    0.365246 *  0.431435 *  0.064990 *   0.00000    1.000000    
     54 C     c    0.337165 *  0.094270 *  0.297519 *   0.00000    1.000000    
     55 C     c    0.570977 *  0.212346 *  0.404454 *   0.00000    1.000000    
     56 C     c    0.398361 *  0.179005 *  0.824098 *   0.00000    1.000000    
     57 C     c    0.643414 *  0.448980 *  0.826792 *   0.00000    1.000000    
     58 C     c    0.781053 *  0.927831 *  0.602302 *   0.00000    1.000000    
     59 C     c    0.143224 *  0.822405 *  0.057205 *   0.00000    1.000000    
     60 C     c    0.628676 *  0.536268 *  0.265687 *   0.00000    1.000000    
     61 C     c    0.585194 *  0.821263 *  0.380745 *   0.00000    1.000000    
     62 C     c    0.005867 *  0.168850 *  0.607111 *   0.00000    1.000000    
     63 C     c    0.643894 *  0.628196 *  0.914080 *   0.00000    1.000000    
     64 C     c    0.623175 *  0.836438 *  0.833322 *   0.00000    1.000000    
--------------------------------------------------------------------------------


  Constraints : 

--------------------------------------------------------------------------------
  Constraint no.      Unconstrained     Constrained    Coefficient    Offset
                         Variable         Variable
--------------------------------------------------------------------------------
           1              Strain 1        Strain 2       1.00000      0.0000
           2              Strain 1        Strain 3       1.00000      0.0000
--------------------------------------------------------------------------------


********************************************************************************
*  General input information                                                   *
********************************************************************************

  Species output for all configurations : 

--------------------------------------------------------------------------------
  Species    Type    Atomic    Atomic    Charge       Radii (Angs)     Library
                     Number     Mass       (e)     Cova   Ionic  VDW   Symbol
--------------------------------------------------------------------------------
    C        Core        6      12.01   0.000000   0.770  0.000  1.530          
--------------------------------------------------------------------------------


  Lattice summation method               =    Ewald          (3-D)
                                         =    Parry          (2-D)
                                         =    Saunders et al (1-D)
  Accuracy factor for lattice sums       =   12.000


  Analytic derivatives to be used

  Time limit = Infinity

  Maximum range for interatomic potentials =    100000.000000 Angstroms

  Brenner et al 2002 potential to be used with explicit splines for P


********************************************************************************
*  Output for configuration   1                                                *
********************************************************************************


  Components of energy : 

--------------------------------------------------------------------------------
  Interatomic potentials     =           0.00000000 eV    
  Brenner potentials         =        -284.85077998 eV    
  Monopole - monopole (real) =           0.00000000 eV    
  Monopole - monopole (recip)=           0.00000000 eV    
  Monopole - monopole (total)=           0.00000000 eV    
--------------------------------------------------------------------------------
  Total lattice energy       =        -284.85077998 eV    
--------------------------------------------------------------------------------
  Total lattice energy       =          -27483.7459 kJ/(mole unit cells)
--------------------------------------------------------------------------------

  Equations of motion will be integrated using the leapfrog Verlet algorithm.

********************************************************************************
*  Molecular Dynamics                                                          *
********************************************************************************

  Isothermal/baric ensemble (NPT) to be used

  Friction for temperature bath =           0.000500
  Friction for pressure    bath =           0.000500

  No. of mobile ions        =                 64

  No. of degrees of freedom =                189

  Time step                 =           0.000100 ps
  Equilibration time        =           5.000000 ps
  Production time           =           0.000000 ps
  Scaling time              =           5.000000 ps
  Scaling frequency         =           0.000100 ps
  Sampling frequency        =           0.005000 ps
  Write frequency           =           0.002000 ps
  TD-Force start time       =           0.000000 ps
  TD-Field start time       =           0.000000 ps



  Molecular dynamics equilibration :

  ** Time :            0.00500 ps :
     Properties:                   Instantaneous       Averaged
       Kinetic energy    (eV) =       0.586459          0.586459
       Potential energy  (eV) =    -322.774581       -322.774581
       Total energy      (eV) =    -322.188123       -322.188123
       Temperature       (K)  =      72.016522         72.016522
       Pressure         (GPa) =     132.690527        132.690527
       Cell parameter : a (A) =       7.117806          7.117806
       Cell parameter : b (A) =       7.114281          7.114281
       Cell parameter : c (A) =       7.111487          7.111487
       Cell angle : alpha (o) =      89.973634         89.973634
       Cell angle : beta  (o) =      89.995654         89.995654
       Cell angle : gamma (o) =      89.977183         89.977183
       Cell volume :   (A**3) =     360.111872        360.111872
  ** Time :            0.01000 ps :
     Properties:                   Instantaneous       Averaged
       Kinetic energy    (eV) =       0.530961          0.558710
       Potential energy  (eV) =    -343.474951       -333.124766
       Total energy      (eV) =    -342.943990       -332.566057
       Temperature       (K)  =      65.201472         68.608997
       Pressure         (GPa) =     100.406590        116.083209
       Cell parameter : a (A) =       7.136438          7.127122
       Cell parameter : b (A) =       7.131354          7.122818
       Cell parameter : c (A) =       7.125921          7.118704
       Cell angle : alpha (o) =      89.969057         89.971345
       Cell angle : beta  (o) =      90.004098         89.999876
       Cell angle : gamma (o) =      89.967107         89.972145
       Cell volume :   (A**3) =     362.655559        361.383716
  ** Time :            0.01500 ps :
     Properties:                   Instantaneous       Averaged
       Kinetic energy    (eV) =       0.494893          0.537437
       Potential energy  (eV) =    -356.962197       -341.070577
       Total energy      (eV) =    -356.467304       -340.533139
       Temperature       (K)  =      60.772322         65.996772
       Pressure         (GPa) =      85.889142        105.578812
       Cell parameter : a (A) =       7.151220          7.135154
       Cell parameter : b (A) =       7.145474          7.130370
       Cell parameter : c (A) =       7.137694          7.125034
       Cell angle : alpha (o) =      89.968739         89.970476
       Cell angle : beta  (o) =      90.017595         90.005782
       Cell angle : gamma (o) =      89.959963         89.968084
       Cell volume :   (A**3) =     364.727872        362.498434
  ** Time :            0.02000 ps :
     Properties:                   Instantaneous       Averaged
       Kinetic energy    (eV) =       0.471509          0.520955
       Potential energy  (eV) =    -366.313538       -347.381317
       Total energy      (eV) =    -365.842029       -346.860362
       Temperature       (K)  =      57.900864         63.972795
       Pressure         (GPa) =      76.447072         97.897247
       Cell parameter : a (A) =       7.164117          7.142395
       Cell parameter : b (A) =       7.157811          7.137230
       Cell parameter : c (A) =       7.148553          7.130914
       Cell angle : alpha (o) =      89.971300         89.970682
       Cell angle : beta  (o) =      90.034739         90.013021
       Cell angle : gamma (o) =      89.956810         89.965266
       Cell volume :   (A**3) =     366.573282        363.517146
  ** Time :            0.02500 ps :
     Properties:                   Instantaneous       Averaged
       Kinetic energy    (eV) =       0.459078          0.508580
       Potential energy  (eV) =    -373.342336       -352.573521
       Total energy      (eV) =    -372.883258       -352.064941
       Temperature       (K)  =      56.374358         62.453107
       Pressure         (GPa) =      67.296438         91.427366
       Cell parameter : a (A) =       7.175443          7.149005
       Cell parameter : b (A) =       7.168465          7.143477
       Cell parameter : c (A) =       7.158630          7.136457
       Cell angle : alpha (o) =      89.976474         89.971841
       Cell angle : beta  (o) =      90.053503         90.021118
       Cell angle : gamma (o) =      89.957211         89.963655
       Cell volume :   (A**3) =     368.217515        364.457220
  ** Time :            0.03000 ps :
     Properties:                   Instantaneous       Averaged
       Kinetic energy    (eV) =       0.449078          0.498663
       Potential energy  (eV) =    -379.011820       -356.979904
       Total energy      (eV) =    -378.562741       -356.481241
       Temperature       (K)  =      55.146369         61.235318
       Pressure         (GPa) =      62.121998         86.236254
       Cell parameter : a (A) =       7.185605          7.155105
       Cell parameter : b (A) =       7.177796          7.149197
       Cell parameter : c (A) =       7.168087          7.141729
       Cell angle : alpha (o) =      89.982509         89.973619
       Cell angle : beta  (o) =      90.073037         90.029771
       Cell angle : gamma (o) =      89.958599         89.962812
       Cell volume :   (A**3) =     369.706660        365.332127
  ** Time :            0.03500 ps :
     Properties:                   Instantaneous       Averaged
       Kinetic energy    (eV) =       0.440956          0.490419
       Potential energy  (eV) =    -383.537992       -360.773916
       Total energy      (eV) =    -383.097036       -360.283497
       Temperature       (K)  =      54.148961         60.222981
       Pressure         (GPa) =      59.105168         82.079675
       Cell parameter : a (A) =       7.195168          7.160828
       Cell parameter : b (A) =       7.186447          7.154518
       Cell parameter : c (A) =       7.177203          7.146797
       Cell angle : alpha (o) =      89.987344         89.975579
       Cell angle : beta  (o) =      90.091417         90.038578
       Cell angle : gamma (o) =      89.959197         89.962296
       Cell volume :   (A**3) =     371.116023        366.158398
  ** Time :            0.04000 ps :
     Properties:                   Instantaneous       Averaged
       Kinetic energy    (eV) =       0.435789          0.483590
       Potential energy  (eV) =    -387.287063       -364.088060
       Total energy      (eV) =    -386.851274       -363.604469
       Temperature       (K)  =      53.514419         59.384411
       Pressure         (GPa) =      55.963234         78.554554
       Cell parameter : a (A) =       7.204326          7.166265
       Cell parameter : b (A) =       7.194488          7.159514
       Cell parameter : c (A) =       7.186143          7.151715
       Cell angle : alpha (o) =      89.990797         89.977482
       Cell angle : beta  (o) =      90.108455         90.047312
       Cell angle : gamma (o) =      89.959368         89.961930
       Cell volume :   (A**3) =     372.467357        366.947017
  ** Time :            0.04500 ps :
     Properties:                   Instantaneous       Averaged
       Kinetic energy    (eV) =       0.431871          0.477844
       Potential energy  (eV) =    -390.490127       -367.021623
       Total energy      (eV) =    -390.058255       -366.543779
       Temperature       (K)  =      53.033388         58.678742
       Pressure         (GPa) =      53.274518         75.504665
       Cell parameter : a (A) =       7.213150          7.171475
       Cell parameter : b (A) =       7.201964          7.164231
       Cell parameter : c (A) =       7.194737          7.156495
       Cell angle : alpha (o) =      89.993510         89.979263
       Cell angle : beta  (o) =      90.124944         90.055938
       Cell angle : gamma (o) =      89.959432         89.961652
       Cell volume :   (A**3) =     373.757330        367.703719
  ** Time :            0.05000 ps :
     Properties:                   Instantaneous       Averaged
       Kinetic energy    (eV) =       0.428759          0.472935
       Potential energy  (eV) =    -393.265944       -369.646055
       Total energy      (eV) =    -392.837185       -369.173120
       Temperature       (K)  =      52.651182         58.075986
       Pressure         (GPa) =      51.202707         72.849288
       Cell parameter : a (A) =       7.221729          7.176500
       Cell parameter : b (A) =       7.208986          7.168707
       Cell parameter : c (A) =       7.203065          7.161152
       Cell angle : alpha (o) =      89.995906         89.980927
       Cell angle : beta  (o) =      90.140650         90.064409
       Cell angle : gamma (o) =      89.959320         89.961419
       Cell volume :   (A**3) =     374.999976        368.433345
  ** Time :            0.05500 ps :
     Properties:                   Instantaneous       Averaged
       Kinetic energy    (eV) =       0.426696          0.468732
       Potential energy  (eV) =    -395.724861       -372.016855
       Total energy      (eV) =    -395.298165       -371.548124
       Temperature       (K)  =      52.397787         57.559786
       Pressure         (GPa) =      49.511048         70.515350
       Cell parameter : a (A) =       7.230095          7.181372
       Cell parameter : b (A) =       7.215667          7.172976
       Cell parameter : c (A) =       7.211187          7.165701
       Cell angle : alpha (o) =      89.998213         89.982498
       Cell angle : beta  (o) =      90.155532         90.072693
       Cell angle : gamma (o) =      89.959200         89.961217
       Cell volume :   (A**3) =     376.205849        369.139936
  ** Time :            0.06000 ps :
     Properties:                   Instantaneous       Averaged
       Kinetic energy    (eV) =       0.425130          0.465098
       Potential energy  (eV) =    -397.974063       -374.179956
       Total energy      (eV) =    -397.548933       -373.714858
       Temperature       (K)  =      52.205529         57.113598
       Pressure         (GPa) =      47.991240         68.437046
       Cell parameter : a (A) =       7.238223          7.186110
       Cell parameter : b (A) =       7.222094          7.177069
       Cell parameter : c (A) =       7.219166          7.170156
       Cell angle : alpha (o) =      90.000144         89.983969
       Cell angle : beta  (o) =      90.169514         90.080762
       Cell angle : gamma (o) =      89.959140         89.961044
       Cell volume :   (A**3) =     377.381067        369.826697
  ** Time :            0.06500 ps :
     Properties:                   Instantaneous       Averaged
       Kinetic energy    (eV) =       0.424307          0.461960
       Potential energy  (eV) =    -400.239620       -376.184546
       Total energy      (eV) =    -399.815313       -375.722585
       Temperature       (K)  =      52.104521         56.728284
       Pressure         (GPa) =      46.204859         66.535982
       Cell parameter : a (A) =       7.246081          7.190723
       Cell parameter : b (A) =       7.228289          7.181009
       Cell parameter : c (A) =       7.227000          7.174529
       Cell angle : alpha (o) =      90.001405         89.985310
       Cell angle : beta  (o) =      90.182413         90.088581
       Cell angle : gamma (o) =      89.958872         89.960877
       Cell volume :   (A**3) =     378.524892        370.495789
  ** Time :            0.07000 ps :
     Properties:                   Instantaneous       Averaged
       Kinetic energy    (eV) =       0.425173          0.459333
       Potential energy  (eV) =    -402.142843       -378.038710
       Total energy      (eV) =    -401.717670       -377.579377
       Temperature       (K)  =      52.210867         56.405612
       Pressure         (GPa) =      43.950740         64.743447
       Cell parameter : a (A) =       7.253624          7.195216
       Cell parameter : b (A) =       7.234179          7.184807
       Cell parameter : c (A) =       7.234607          7.178820
       Cell angle : alpha (o) =      90.001694         89.986480
       Cell angle : beta  (o) =      90.194294         90.096132
       Cell angle : gamma (o) =      89.957667         89.960648
       Cell volume :   (A**3) =     379.626618        371.147991
  ** Time :            0.07500 ps :
     Properties:                   Instantaneous       Averaged
       Kinetic energy    (eV) =       0.427035          0.457180
       Potential energy  (eV) =    -404.306762       -379.789913
       Total energy      (eV) =    -403.879727       -379.332734
       Temperature       (K)  =      52.439485         56.141203
       Pressure         (GPa) =      41.116822         63.003025
       Cell parameter : a (A) =       7.260857          7.199592
       Cell parameter : b (A) =       7.239521          7.188454
       Cell parameter : c (A) =       7.241885          7.183024
       Cell angle : alpha (o) =      90.000650         89.987425
       Cell angle : beta  (o) =      90.205667         90.103434
       Cell angle : gamma (o) =      89.955339         89.960294
       Cell volume :   (A**3) =     380.668029        371.782660
  ** Time :            0.08000 ps :
     Properties:                   Instantaneous       Averaged
       Kinetic energy    (eV) =       0.420418          0.454882
       Potential energy  (eV) =    -406.159401       -381.438006
       Total energy      (eV) =    -405.738982       -380.983124
       Temperature       (K)  =      51.626968         55.859063
       Pressure         (GPa) =      39.655514         61.388973
       Cell parameter : a (A) =       7.267791          7.203855
       Cell parameter : b (A) =       7.244640          7.191966
       Cell parameter : c (A) =       7.248870          7.187140
       Cell angle : alpha (o) =      89.999561         89.988184
       Cell angle : beta  (o) =      90.216402         90.110495
       Cell angle : gamma (o) =      89.953925         89.959896
       Cell volume :   (A**3) =     381.668529        372.400527
  ** Time :            0.08500 ps :
     Properties:                   Instantaneous       Averaged
       Kinetic energy    (eV) =       0.418376          0.452735
       Potential energy  (eV) =    -407.633168       -382.978898
       Total energy      (eV) =    -407.214792       -382.526163
       Temperature       (K)  =      51.376157         55.595363
       Pressure         (GPa) =      38.331396         59.886735
       Cell parameter : a (A) =       7.274449          7.208007
       Cell parameter : b (A) =       7.249534          7.195352
       Cell parameter : c (A) =       7.255675          7.191171
       Cell angle : alpha (o) =      89.998365         89.988782
       Cell angle : beta  (o) =      90.226810         90.117337
       Cell angle : gamma (o) =      89.953238         89.959504
       Cell volume :   (A**3) =     382.634823        373.002544
  ** Time :            0.09000 ps :
     Properties:                   Instantaneous       Averaged
       Kinetic energy    (eV) =       0.417190          0.450760
       Potential energy  (eV) =    -408.930173       -384.420636
       Total energy      (eV) =    -408.512984       -383.969876
       Temperature       (K)  =      51.230467         55.352869
       Pressure         (GPa) =      37.216441         58.488547
       Cell parameter : a (A) =       7.280926          7.212058
       Cell parameter : b (A) =       7.254214          7.198622
       Cell parameter : c (A) =       7.262362          7.195126
       Cell angle : alpha (o) =      89.996932         89.989235
       Cell angle : beta  (o) =      90.236869         90.123977
       Cell angle : gamma (o) =      89.952585         89.959120
       Cell volume :   (A**3) =     383.575639        373.589938
  ** Time :            0.09500 ps :
     Properties:                   Instantaneous       Averaged
       Kinetic energy    (eV) =       0.416315          0.448947
       Potential energy  (eV) =    -410.121183       -385.773296
       Total energy      (eV) =    -409.704869       -385.324349
       Temperature       (K)  =      51.123032         55.130246
       Pressure         (GPa) =      36.423929         57.194599
       Cell parameter : a (A) =       7.287287          7.216018
       Cell parameter : b (A) =       7.258674          7.201783
       Cell parameter : c (A) =       7.268972          7.199013
       Cell angle : alpha (o) =      89.995351         89.989557
       Cell angle : beta  (o) =      90.246438         90.130423
       Cell angle : gamma (o) =      89.951458         89.958716
       Cell volume :   (A**3) =     384.496123        374.163948
  ** Time :            0.10000 ps :
     Properties:                   Instantaneous       Averaged
       Kinetic energy    (eV) =       0.415677          0.447283
       Potential energy  (eV) =    -411.224939       -387.045878
       Total energy      (eV) =    -410.809262       -386.598595
       Temperature       (K)  =      51.044695         54.925968
       Pressure         (GPa) =      35.635192         55.988588
       Cell parameter : a (A) =       7.293621          7.219898
       Cell parameter : b (A) =       7.262947          7.204841
       Cell parameter : c (A) =       7.275536          7.202839
       Cell angle : alpha (o) =      89.993357         89.989747
       Cell angle : beta  (o) =      90.255154         90.136659
       Cell angle : gamma (o) =      89.949382         89.958250
       Cell volume :   (A**3) =     385.404336        374.725968
  ** Time :            0.10500 ps :
     Properties:                   Instantaneous       Averaged
       Kinetic energy    (eV) =       0.414990          0.445746
       Potential energy  (eV) =    -412.250917       -388.246118
       Total energy      (eV) =    -411.835927       -387.800372
       Temperature       (K)  =      50.960377         54.737131
       Pressure         (GPa) =      34.589056         54.847111
       Cell parameter : a (A) =       7.299834          7.223704
       Cell parameter : b (A) =       7.267036          7.207803
       Cell parameter : c (A) =       7.281982          7.206608
       Cell angle : alpha (o) =      89.991014         89.989807
       Cell angle : beta  (o) =      90.263588         90.142703
       Cell angle : gamma (o) =      89.946831         89.957706
       Cell volume :   (A**3) =     386.291429        375.276704
  ** Time :            0.11000 ps :
     Properties:                   Instantaneous       Averaged
       Kinetic energy    (eV) =       0.414200          0.444312
       Potential energy  (eV) =    -413.195272       -389.380171
       Total energy      (eV) =    -412.781072       -388.935859
       Temperature       (K)  =      50.863288         54.561047
       Pressure         (GPa) =      33.923646         53.778525
       Cell parameter : a (A) =       7.305962          7.227443
       Cell parameter : b (A) =       7.270969          7.210674
       Cell parameter : c (A) =       7.288304          7.210321
       Cell angle : alpha (o) =      89.988417         89.989744
       Cell angle : beta  (o) =      90.271585         90.148562
       Cell angle : gamma (o) =      89.943663         89.957068
       Cell volume :   (A**3) =     387.160491        375.816876
  ** Time :            0.11500 ps :
     Properties:                   Instantaneous       Averaged
       Kinetic energy    (eV) =       0.413530          0.442973
       Potential energy  (eV) =    -414.060861       -390.453244
       Total energy      (eV) =    -413.647331       -390.010271
       Temperature       (K)  =      50.781047         54.396699
       Pressure         (GPa) =      33.141942         52.767939
       Cell parameter : a (A) =       7.312078          7.231123
       Cell parameter : b (A) =       7.274763          7.213461
       Cell parameter : c (A) =       7.294487          7.213981
       Cell angle : alpha (o) =      89.985571         89.989563
       Cell angle : beta  (o) =      90.279326         90.154247
       Cell angle : gamma (o) =      89.939786         89.956316
       Cell volume :   (A**3) =     388.015439        376.347248
  ** Time :            0.12000 ps :
     Properties:                   Instantaneous       Averaged
       Kinetic energy    (eV) =       0.412917          0.441721
       Potential energy  (eV) =    -414.848579       -391.469716
       Total energy      (eV) =    -414.435662       -391.027995
       Temperature       (K)  =      50.705803         54.242912
       Pressure         (GPa) =      32.622267         51.818979
       Cell parameter : a (A) =       7.318139          7.234749
       Cell parameter : b (A) =       7.278468          7.216169
       Cell parameter : c (A) =       7.300558          7.217588
       Cell angle : alpha (o) =      89.982935         89.989287
       Cell angle : beta  (o) =      90.287401         90.159795
       Cell angle : gamma (o) =      89.935071         89.955431
       Cell volume :   (A**3) =     388.857890        376.868525
  ** Time :            0.12500 ps :
     Properties:                   Instantaneous       Averaged
       Kinetic energy    (eV) =       0.412337          0.440546
       Potential energy  (eV) =    -415.570040       -392.433729
       Total energy      (eV) =    -415.157703       -391.993184
       Temperature       (K)  =      50.634551         54.098577
       Pressure         (GPa) =      31.319187         50.894033
       Cell parameter : a (A) =       7.324100          7.238323
       Cell parameter : b (A) =       7.282028          7.218804
       Cell parameter : c (A) =       7.306472          7.221143
       Cell angle : alpha (o) =      89.980285         89.988927
       Cell angle : beta  (o) =      90.295259         90.165214
       Cell angle : gamma (o) =      89.930011         89.954414
       Cell volume :   (A**3) =     389.680034        377.380985
  ** Time :            0.13000 ps :
     Properties:                   Instantaneous       Averaged
       Kinetic energy    (eV) =       0.411786          0.439440
       Potential energy  (eV) =    -416.228151       -393.348899
       Total energy      (eV) =    -415.816365       -392.909460
       Temperature       (K)  =      50.566900         53.962744
       Pressure         (GPa) =      30.829230         50.021749
       Cell parameter : a (A) =       7.329975          7.241848
       Cell parameter : b (A) =       7.285430          7.221366
       Cell parameter : c (A) =       7.312238          7.224647
       Cell angle : alpha (o) =      89.977478         89.988486
       Cell angle : beta  (o) =      90.303254         90.170523
       Cell angle : gamma (o) =      89.924506         89.953264
       Cell volume :   (A**3) =     390.482447        377.884888
  ** Time :            0.13500 ps :
     Properties:                   Instantaneous       Averaged
       Kinetic energy    (eV) =       0.411281          0.438397
       Potential energy  (eV) =    -416.820999       -394.218236
       Total energy      (eV) =    -416.409718       -393.779840
       Temperature       (K)  =      50.504925         53.834676
       Pressure         (GPa) =      29.512469         49.165751
       Cell parameter : a (A) =       7.335745          7.245325
       Cell parameter : b (A) =       7.288768          7.223862
       Cell parameter : c (A) =       7.317791          7.228097
       Cell angle : alpha (o) =      89.974926         89.987984
       Cell angle : beta  (o) =      90.311346         90.175739
       Cell angle : gamma (o) =      89.918559         89.951979
       Cell volume :   (A**3) =     391.265435        378.380464
  ** Time :            0.14000 ps :
     Properties:                   Instantaneous       Averaged
       Kinetic energy    (eV) =       0.410820          0.437412
       Potential energy  (eV) =    -417.357219       -395.044629
       Total energy      (eV) =    -416.946399       -394.607217
       Temperature       (K)  =      50.448337         53.713735
       Pressure         (GPa) =      28.815566         48.347166
       Cell parameter : a (A) =       7.341390          7.248756
       Cell parameter : b (A) =       7.291946          7.226294
       Cell parameter : c (A) =       7.323164          7.231492
       Cell angle : alpha (o) =      89.972277         89.987423
       Cell angle : beta  (o) =      90.319646         90.180878
       Cell angle : gamma (o) =      89.912204         89.950558
       Cell volume :   (A**3) =     392.024460        378.867749
  ** Time :            0.14500 ps :
     Properties:                   Instantaneous       Averaged
       Kinetic energy    (eV) =       0.411061          0.436503
       Potential energy  (eV) =    -417.860020       -395.831366
       Total energy      (eV) =    -417.448959       -395.394863
       Temperature       (K)  =      50.477896         53.602155
       Pressure         (GPa) =      27.412902         47.537661
       Cell parameter : a (A) =       7.346877          7.252140
       Cell parameter : b (A) =       7.295078          7.228666
       Cell parameter : c (A) =       7.328318          7.234831
       Cell angle : alpha (o) =      89.969513         89.986805
       Cell angle : beta  (o) =      90.328484         90.185968
       Cell angle : gamma (o) =      89.905360         89.949000
       Cell volume :   (A**3) =     392.761796        379.346854
  ** Time :            0.15000 ps :
     Properties:                   Instantaneous       Averaged
       Kinetic energy    (eV) =       0.417126          0.435857
       Potential energy  (eV) =    -418.620502       -396.591004
       Total energy      (eV) =    -418.203376       -396.155147
       Temperature       (K)  =      51.222689         53.522839
       Pressure         (GPa) =      25.538526         46.723313
       Cell parameter : a (A) =       7.352120          7.255473
       Cell parameter : b (A) =       7.298128          7.230981
       Cell parameter : c (A) =       7.332975          7.238102
       Cell angle : alpha (o) =      89.965938         89.986110
       Cell angle : beta  (o) =      90.339273         90.191078
       Cell angle : gamma (o) =      89.897322         89.947277
       Cell volume :   (A**3) =     393.455707        379.817149
  ** Time :            0.15500 ps :
     Properties:                   Instantaneous       Averaged
       Kinetic energy    (eV) =       0.411612          0.435075
       Potential energy  (eV) =    -419.471781       -397.329094
       Total energy      (eV) =    -419.060169       -396.894019
       Temperature       (K)  =      50.545566         53.426798
       Pressure         (GPa) =      26.328273         45.986982
       Cell parameter : a (A) =       7.357269          7.258756
       Cell parameter : b (A) =       7.301215          7.233247
       Cell parameter : c (A) =       7.337483          7.241308
       Cell angle : alpha (o) =      89.962002         89.985332
       Cell angle : beta  (o) =      90.351102         90.196240
       Cell angle : gamma (o) =      89.887261         89.945341
       Cell volume :   (A**3) =     394.139335        380.279155
  ** Time :            0.16000 ps :
     Properties:                   Instantaneous       Averaged
       Kinetic energy    (eV) =       0.409046          0.434262
       Potential energy  (eV) =    -419.907808       -398.034678
       Total energy      (eV) =    -419.498762       -397.600417
       Temperature       (K)  =      50.230417         53.326911
       Pressure         (GPa) =      25.469038         45.268607
       Cell parameter : a (A) =       7.362358          7.261994
       Cell parameter : b (A) =       7.304275          7.235466
       Cell parameter : c (A) =       7.342072          7.244457
       Cell angle : alpha (o) =      89.957766         89.984471
       Cell angle : beta  (o) =      90.361828         90.201415
       Cell angle : gamma (o) =      89.877240         89.943213
       Cell volume :   (A**3) =     394.823418        380.733663
  ** Time :            0.16500 ps :
     Properties:                   Instantaneous       Averaged
       Kinetic energy    (eV) =       0.409348          0.433507
       Potential energy  (eV) =    -420.218730       -398.706922
       Total energy      (eV) =    -419.809382       -398.273416
       Temperature       (K)  =      50.267522         53.234202
       Pressure         (GPa) =      24.714454         44.571887
       Cell parameter : a (A) =       7.367255          7.265184
       Cell parameter : b (A) =       7.307264          7.237642
       Cell parameter : c (A) =       7.346563          7.247551
       Cell angle : alpha (o) =      89.953587         89.983535
       Cell angle : beta  (o) =      90.371807         90.206578
       Cell angle : gamma (o) =      89.868325         89.940943
       Cell volume :   (A**3) =     395.488923        381.180793
  ** Time :            0.17000 ps :
     Properties:                   Instantaneous       Averaged
       Kinetic energy    (eV) =       0.408866          0.432782
       Potential energy  (eV) =    -420.527146       -399.348694
       Total energy      (eV) =    -420.118280       -398.915912
       Temperature       (K)  =      50.208307         53.145206
       Pressure         (GPa) =      24.213845         43.902198
       Cell parameter : a (A) =       7.372039          7.268326
       Cell parameter : b (A) =       7.310147          7.239775
       Cell parameter : c (A) =       7.350963          7.250593
       Cell angle : alpha (o) =      89.949978         89.982548
       Cell angle : beta  (o) =      90.381006         90.211708
       Cell angle : gamma (o) =      89.859991         89.938562
       Cell volume :   (A**3) =     396.138362        381.620721
  ** Time :            0.17500 ps :
     Properties:                   Instantaneous       Averaged
       Kinetic energy    (eV) =       0.408782          0.432096
       Potential energy  (eV) =    -420.792702       -399.961380
       Total energy      (eV) =    -420.383919       -399.529283
       Temperature       (K)  =      50.198050         53.061001
       Pressure         (GPa) =      23.946069         43.262903
       Cell parameter : a (A) =       7.376787          7.271425
       Cell parameter : b (A) =       7.312970          7.241866
       Cell parameter : c (A) =       7.355328          7.253585
       Cell angle : alpha (o) =      89.946344         89.981513
       Cell angle : beta  (o) =      90.390432         90.216815
       Cell angle : gamma (o) =      89.851334         89.936070
       Cell volume :   (A**3) =     396.781431        382.053884
  ** Time :            0.18000 ps :
     Properties:                   Instantaneous       Averaged
       Kinetic energy    (eV) =       0.407969          0.431426
       Potential energy  (eV) =    -421.021412       -400.546381
       Total energy      (eV) =    -420.613443       -400.114954
       Temperature       (K)  =      50.098164         52.978700
       Pressure         (GPa) =      23.394517         42.643927
       Cell parameter : a (A) =       7.381456          7.274482
       Cell parameter : b (A) =       7.315741          7.243918
       Cell parameter : c (A) =       7.359640          7.256531
       Cell angle : alpha (o) =      89.942111         89.980419
       Cell angle : beta  (o) =      90.400731         90.221924
       Cell angle : gamma (o) =      89.842178         89.933462
       Cell volume :   (A**3) =     397.415201        382.480587
  ** Time :            0.18500 ps :
     Properties:                   Instantaneous       Averaged
       Kinetic energy    (eV) =       0.407847          0.430789
       Potential energy  (eV) =    -421.194258       -401.104431
       Total energy      (eV) =    -420.786412       -400.673642
       Temperature       (K)  =      50.083173         52.900443
       Pressure         (GPa) =      22.962609         42.047095
       Cell parameter : a (A) =       7.385977          7.277495
       Cell parameter : b (A) =       7.318484          7.245933
       Cell parameter : c (A) =       7.363911          7.259433
       Cell angle : alpha (o) =      89.937767         89.979266
       Cell angle : beta  (o) =      90.411394         90.227044
       Cell angle : gamma (o) =      89.832767         89.930741
       Cell volume :   (A**3) =     398.037855        382.901054
  ** Time :            0.19000 ps :
     Properties:                   Instantaneous       Averaged
       Kinetic energy    (eV) =       0.407315          0.430171
       Potential energy  (eV) =    -421.304185       -401.636004
       Total energy      (eV) =    -420.896870       -401.205833
       Temperature       (K)  =      50.017898         52.824586
       Pressure         (GPa) =      23.241763         41.487803
       Cell parameter : a (A) =       7.390600          7.280472
       Cell parameter : b (A) =       7.321207          7.247914
       Cell parameter : c (A) =       7.368175          7.262295
       Cell angle : alpha (o) =      89.934031         89.978076
       Cell angle : beta  (o) =      90.420978         90.232148
       Cell angle : gamma (o) =      89.823103         89.927908
       Cell volume :   (A**3) =     398.665103        383.315898
  ** Time :            0.19500 ps :
     Properties:                   Instantaneous       Averaged
       Kinetic energy    (eV) =       0.407084          0.429579
       Potential energy  (eV) =    -421.367315       -402.141935
       Total energy      (eV) =    -420.960231       -401.712356
       Temperature       (K)  =      49.989542         52.751893
       Pressure         (GPa) =      22.161089         40.930718
       Cell parameter : a (A) =       7.395014          7.283409
       Cell parameter : b (A) =       7.323834          7.249861
       Cell parameter : c (A) =       7.372370          7.265117
       Cell angle : alpha (o) =      89.930660         89.976860
       Cell angle : beta  (o) =      90.430338         90.237230
       Cell angle : gamma (o) =      89.813423         89.924973
       Cell volume :   (A**3) =     399.272821        383.725049
  ** Time :            0.20000 ps :
     Properties:                   Instantaneous       Averaged
       Kinetic energy    (eV) =       0.405959          0.428989
       Potential energy  (eV) =    -421.420234       -402.623892
       Total energy      (eV) =    -421.014275       -402.194904
       Temperature       (K)  =      49.851302         52.679378
       Pressure         (GPa) =      22.454015         40.408581
       Cell parameter : a (A) =       7.399558          7.286312
       Cell parameter : b (A) =       7.326379          7.251774
       Cell parameter : c (A) =       7.376429          7.267900
       Cell angle : alpha (o) =      89.926912         89.975611
       Cell angle : beta  (o) =      90.439930         90.242297
       Cell angle : gamma (o) =      89.803584         89.921938
       Cell volume :   (A**3) =     399.876226        384.128829
  ** Time :            0.20500 ps :
     Properties:                   Instantaneous       Averaged
       Kinetic energy    (eV) =       0.406770          0.428447
       Potential energy  (eV) =    -421.482190       -403.083851
       Total energy      (eV) =    -421.075420       -402.655404
       Temperature       (K)  =      49.950922         52.612830
       Pressure         (GPa) =      21.166426         39.880819
       Cell parameter : a (A) =       7.404046          7.289184
       Cell parameter : b (A) =       7.328905          7.253655
       Cell parameter : c (A) =       7.380373          7.270643
       Cell angle : alpha (o) =      89.922768         89.974322
       Cell angle : beta  (o) =      90.450025         90.247364
       Cell angle : gamma (o) =      89.793552         89.918806
       Cell volume :   (A**3) =     400.469888        384.527391
  ** Time :            0.21000 ps :
     Properties:                   Instantaneous       Averaged
       Kinetic energy    (eV) =       0.406597          0.427926
       Potential energy  (eV) =    -421.508840       -403.522541
       Total energy      (eV) =    -421.102243       -403.094615
       Temperature       (K)  =      49.929727         52.548947
       Pressure         (GPa) =      20.882319         39.372790
       Cell parameter : a (A) =       7.408141          7.292016
       Cell parameter : b (A) =       7.331425          7.255507
       Cell parameter : c (A) =       7.384335          7.273350
       Cell angle : alpha (o) =      89.918575         89.972995
       Cell angle : beta  (o) =      90.460076         90.252428
       Cell angle : gamma (o) =      89.783523         89.915585
       Cell volume :   (A**3) =     401.043501        384.920632
  ** Time :            0.21500 ps :
     Properties:                   Instantaneous       Averaged
       Kinetic energy    (eV) =       0.407052          0.427441
       Potential energy  (eV) =    -421.595167       -403.942835
       Total energy      (eV) =    -421.188115       -403.515394
       Temperature       (K)  =      49.985610         52.489334
       Pressure         (GPa) =      20.878502         38.888416
       Cell parameter : a (A) =       7.412137          7.294810
       Cell parameter : b (A) =       7.333937          7.257331
       Cell parameter : c (A) =       7.388269          7.276023
       Cell angle : alpha (o) =      89.914744         89.971640
       Cell angle : beta  (o) =      90.469293         90.257472
       Cell angle : gamma (o) =      89.773705         89.912286
       Cell volume :   (A**3) =     401.610297        385.308764
  ** Time :            0.22000 ps :
     Properties:                   Instantaneous       Averaged
       Kinetic energy    (eV) =       0.406675          0.426969
       Potential energy  (eV) =    -421.687015       -404.346111
       Total energy      (eV) =    -421.280340       -403.919142
       Temperature       (K)  =      49.939304         52.431379
       Pressure         (GPa) =      20.392889         38.413618
       Cell parameter : a (A) =       7.416435          7.297574
       Cell parameter : b (A) =       7.336440          7.259129
       Cell parameter : c (A) =       7.392073          7.278660
       Cell angle : alpha (o) =      89.910729         89.970256
       Cell angle : beta  (o) =      90.478087         90.262486
       Cell angle : gamma (o) =      89.764250         89.908921
       Cell volume :   (A**3) =     402.186466        385.692348
  ** Time :            0.22500 ps :
     Properties:                   Instantaneous       Averaged
       Kinetic energy    (eV) =       0.407444          0.426535
       Potential energy  (eV) =    -421.711044       -404.731999
       Total energy      (eV) =    -421.303599       -404.305464
       Temperature       (K)  =      50.033754         52.378099
       Pressure         (GPa) =      19.836246         37.949385
       Cell parameter : a (A) =       7.420452          7.300304
       Cell parameter : b (A) =       7.338843          7.260900
       Cell parameter : c (A) =       7.395790          7.281263
       Cell angle : alpha (o) =      89.906269         89.968834
       Cell angle : beta  (o) =      90.487603         90.267488
       Cell angle : gamma (o) =      89.755641         89.905515
       Cell volume :   (A**3) =     402.737625        386.071132
  ** Time :            0.23000 ps :
     Properties:                   Instantaneous       Averaged
       Kinetic energy    (eV) =       0.406727          0.426105
       Potential energy  (eV) =    -421.782342       -405.102658
       Total energy      (eV) =    -421.375615       -404.676554
       Temperature       (K)  =      49.945682         52.325220
       Pressure         (GPa) =      20.177649         37.512432
       Cell parameter : a (A) =       7.424557          7.303006
       Cell parameter : b (A) =       7.341236          7.262647
       Cell parameter : c (A) =       7.399395          7.283831
       Cell angle : alpha (o) =      89.901945         89.967380
       Cell angle : beta  (o) =      90.496721         90.272472
       Cell angle : gamma (o) =      89.746431         89.902057
       Cell volume :   (A**3) =     403.287422        386.445399
  ** Time :            0.23500 ps :
     Properties:                   Instantaneous       Averaged
       Kinetic energy    (eV) =       0.406482          0.425687
       Potential energy  (eV) =    -421.841726       -405.458809
       Total energy      (eV) =    -421.435245       -405.033122
       Temperature       (K)  =      49.915560         52.273951
       Pressure         (GPa) =      18.692898         37.063319
       Cell parameter : a (A) =       7.428569          7.305677
       Cell parameter : b (A) =       7.343601          7.264369
       Cell parameter : c (A) =       7.402852          7.286364
       Cell angle : alpha (o) =      89.897754         89.965899
       Cell angle : beta  (o) =      90.504949         90.277418
       Cell angle : gamma (o) =      89.736569         89.898536
       Cell volume :   (A**3) =     403.823050        386.815136
  ** Time :            0.24000 ps :
     Properties:                   Instantaneous       Averaged
       Kinetic energy    (eV) =       0.406421          0.425286
       Potential energy  (eV) =    -421.838875       -405.800060
       Total energy      (eV) =    -421.432454       -405.374775
       Temperature       (K)  =      49.908116         52.224662
       Pressure         (GPa) =      18.555313         36.631416
       Cell parameter : a (A) =       7.432369          7.308317
       Cell parameter : b (A) =       7.345873          7.266067
       Cell parameter : c (A) =       7.406246          7.288861
       Cell angle : alpha (o) =      89.892802         89.964376
       Cell angle : beta  (o) =      90.512617         90.282318
       Cell angle : gamma (o) =      89.727156         89.894965
       Cell volume :   (A**3) =     404.339112        387.180219
  ** Time :            0.24500 ps :
     Properties:                   Instantaneous       Averaged
       Kinetic energy    (eV) =       0.406562          0.424904
       Potential energy  (eV) =    -421.818676       -406.126971
       Total energy      (eV) =    -421.412115       -405.702067
       Temperature       (K)  =      49.925376         52.177738
       Pressure         (GPa) =      18.926686         36.224143
       Cell parameter : a (A) =       7.436400          7.310930
       Cell parameter : b (A) =       7.348069          7.267740
       Cell parameter : c (A) =       7.409524          7.291324
       Cell angle : alpha (o) =      89.887573         89.962808
       Cell angle : beta  (o) =      90.520049         90.287170
       Cell angle : gamma (o) =      89.718217         89.891358
       Cell volume :   (A**3) =     404.857570        387.540981
  ** Time :            0.25000 ps :
     Properties:                   Instantaneous       Averaged
       Kinetic energy    (eV) =       0.406081          0.424527
       Potential energy  (eV) =    -421.837168       -406.441175
       Total energy      (eV) =    -421.431087       -406.016648
       Temperature       (K)  =      49.866392         52.131511
       Pressure         (GPa) =      17.963052         35.814208
       Cell parameter : a (A) =       7.440482          7.313522
       Cell parameter : b (A) =       7.350192          7.269390
       Cell parameter : c (A) =       7.412672          7.293751
       Cell angle : alpha (o) =      89.883105         89.961214
       Cell angle : beta  (o) =      90.527203         90.291970
       Cell angle : gamma (o) =      89.709349         89.887718
       Cell volume :   (A**3) =     405.368150        387.897525
  ** Time :            0.25500 ps :
     Properties:                   Instantaneous       Averaged
       Kinetic energy    (eV) =       0.407059          0.424185
       Potential energy  (eV) =    -421.839349       -406.743100
       Total energy      (eV) =    -421.432290       -406.318915
       Temperature       (K)  =      49.986444         52.089451
       Pressure         (GPa) =      17.823412         35.418151
       Cell parameter : a (A) =       7.444352          7.316087
       Cell parameter : b (A) =       7.352282          7.271015
       Cell parameter : c (A) =       7.415871          7.296145
       Cell angle : alpha (o) =      89.879185         89.959606
       Cell angle : beta  (o) =      90.533814         90.296712
       Cell angle : gamma (o) =      89.700187         89.884041
       Cell volume :   (A**3) =     405.868613        388.249899
  ** Time :            0.26000 ps :
     Properties:                   Instantaneous       Averaged
       Kinetic energy    (eV) =       0.406822          0.423851
       Potential energy  (eV) =    -421.870581       -407.034013
       Total energy      (eV) =    -421.463759       -406.610162
       Temperature       (K)  =      49.957354         52.048449
       Pressure         (GPa) =      17.275004         35.027257
       Cell parameter : a (A) =       7.448068          7.318625
       Cell parameter : b (A) =       7.354364          7.272618
       Cell parameter : c (A) =       7.419056          7.298509
       Cell angle : alpha (o) =      89.874841         89.957976
       Cell angle : beta  (o) =      90.540029         90.301391
       Cell angle : gamma (o) =      89.690897         89.880327
       Cell volume :   (A**3) =     406.359790        388.598166
  ** Time :            0.26500 ps :
     Properties:                   Instantaneous       Averaged
       Kinetic energy    (eV) =       0.408167          0.423555
       Potential energy  (eV) =    -421.968205       -407.315790
       Total energy      (eV) =    -421.560039       -406.892235
       Temperature       (K)  =      50.122447         52.012110
       Pressure         (GPa) =      16.979771         34.645430
       Cell parameter : a (A) =       7.451854          7.321139
       Cell parameter : b (A) =       7.356381          7.274198
       Cell parameter : c (A) =       7.422190          7.300842
       Cell angle : alpha (o) =      89.870216         89.956320
       Cell angle : beta  (o) =      90.545836         90.306004
       Cell angle : gamma (o) =      89.681873         89.876582
       Cell volume :   (A**3) =     406.848830        388.942518
  ** Time :            0.27000 ps :
     Properties:                   Instantaneous       Averaged
       Kinetic energy    (eV) =       0.407839          0.423264
       Potential energy  (eV) =    -422.086954       -407.589330
       Total energy      (eV) =    -421.679115       -407.166066
       Temperature       (K)  =      50.082248         51.976371
       Pressure         (GPa) =      16.442414         34.269448
       Cell parameter : a (A) =       7.455372          7.323624
       Cell parameter : b (A) =       7.358251          7.275755
       Cell parameter : c (A) =       7.425310          7.303147
       Cell angle : alpha (o) =      89.866239         89.954652
       Cell angle : beta  (o) =      90.551781         90.310555
       Cell angle : gamma (o) =      89.673559         89.872823
       Cell volume :   (A**3) =     407.314653        389.282743
  ** Time :            0.27500 ps :
     Properties:                   Instantaneous       Averaged
       Kinetic energy    (eV) =       0.408070          0.422988
       Potential energy  (eV) =    -422.235877       -407.855631
       Total energy      (eV) =    -421.827806       -407.432643
       Temperature       (K)  =      50.110603         51.942448
       Pressure         (GPa) =      15.936667         33.898315
       Cell parameter : a (A) =       7.458783          7.326082
       Cell parameter : b (A) =       7.360079          7.277288
       Cell parameter : c (A) =       7.428433          7.305425
       Cell angle : alpha (o) =      89.863454         89.952994
       Cell angle : beta  (o) =      90.557784         90.315050
       Cell angle : gamma (o) =      89.664946         89.869043
       Cell volume :   (A**3) =     407.772883        389.618927
  ** Time :            0.28000 ps :
     Properties:                   Instantaneous       Averaged
       Kinetic energy    (eV) =       0.407834          0.422717
       Potential energy  (eV) =    -422.334835       -408.114188
       Total energy      (eV) =    -421.927001       -407.691471
       Temperature       (K)  =      50.081655         51.909220
       Pressure         (GPa) =      15.594577         33.535471
       Cell parameter : a (A) =       7.462043          7.328510
       Cell parameter : b (A) =       7.361846          7.278798
       Cell parameter : c (A) =       7.431455          7.307676
       Cell angle : alpha (o) =      89.860771         89.951347
       Cell angle : beta  (o) =      90.563952         90.319495
       Cell angle : gamma (o) =      89.656361         89.865245
       Cell volume :   (A**3) =     408.214191        389.950986
  ** Time :            0.28500 ps :
     Properties:                   Instantaneous       Averaged
       Kinetic energy    (eV) =       0.407812          0.422455
       Potential energy  (eV) =    -422.491308       -408.366418
       Total energy      (eV) =    -422.083496       -407.943963
       Temperature       (K)  =      50.078866         51.877108
       Pressure         (GPa) =      14.825439         33.172342
       Cell parameter : a (A) =       7.465231          7.330908
       Cell parameter : b (A) =       7.363574          7.280285
       Cell parameter : c (A) =       7.434424          7.309900
       Cell angle : alpha (o) =      89.857490         89.949700
       Cell angle : beta  (o) =      90.570323         90.323895
       Cell angle : gamma (o) =      89.648150         89.861436
       Cell volume :   (A**3) =     408.646847        390.278983
  ** Time :            0.29000 ps :
     Properties:                   Instantaneous       Averaged
       Kinetic energy    (eV) =       0.407961          0.422206
       Potential energy  (eV) =    -422.593999       -408.611721
       Total energy      (eV) =    -422.186038       -408.189516
       Temperature       (K)  =      50.097181         51.846420
       Pressure         (GPa) =      14.350055         32.814885
       Cell parameter : a (A) =       7.468211          7.333276
       Cell parameter : b (A) =       7.365275          7.281750
       Cell parameter : c (A) =       7.437272          7.312096
       Cell angle : alpha (o) =      89.854012         89.948050
       Cell angle : beta  (o) =      90.577086         90.328261
       Cell angle : gamma (o) =      89.640451         89.857626
       Cell volume :   (A**3) =     409.060098        390.602796
  ** Time :            0.29500 ps :
     Properties:                   Instantaneous       Averaged
       Kinetic energy    (eV) =       0.407787          0.421961
       Potential energy  (eV) =    -422.697663       -408.850466
       Total energy      (eV) =    -422.289877       -408.428505
       Temperature       (K)  =      50.075778         51.816409
       Pressure         (GPa) =      14.363795         32.469749
       Cell parameter : a (A) =       7.471316          7.335615
       Cell parameter : b (A) =       7.366929          7.283194
       Cell parameter : c (A) =       7.440003          7.314264
       Cell angle : alpha (o) =      89.850558         89.946398
       Cell angle : beta  (o) =      90.584017         90.332596
       Cell angle : gamma (o) =      89.632866         89.853817
       Cell volume :   (A**3) =     409.471437        390.922603
  ** Time :            0.30000 ps :
     Properties:                   Instantaneous       Averaged
       Kinetic energy    (eV) =       0.407092          0.421713
       Potential energy  (eV) =    -422.755152       -409.082211
       Total energy      (eV) =    -422.348059       -408.660498
       Temperature       (K)  =      49.990540         51.785978
       Pressure         (GPa) =      13.367859         32.120853
       Cell parameter : a (A) =       7.474247          7.337926
       Cell parameter : b (A) =       7.368462          7.284615
       Cell parameter : c (A) =       7.442671          7.316404
       Cell angle : alpha (o) =      89.846886         89.944739
       Cell angle : beta  (o) =      90.592118         90.336921
       Cell angle : gamma (o) =      89.625896         89.850018
       Cell volume :   (A**3) =     409.863359        391.238282
  ** Time :            0.30500 ps :
     Properties:                   Instantaneous       Averaged
       Kinetic energy    (eV) =       0.406888          0.421470
       Potential energy  (eV) =    -422.800021       -409.307093
       Total energy      (eV) =    -422.393132       -408.885623
       Temperature       (K)  =      49.965468         51.756134
       Pressure         (GPa) =      13.225619         31.782028
       Cell parameter : a (A) =       7.477017          7.340206
       Cell parameter : b (A) =       7.369851          7.286013
       Cell parameter : c (A) =       7.445383          7.318518
       Cell angle : alpha (o) =      89.843071         89.943073
       Cell angle : beta  (o) =      90.601545         90.341259
       Cell angle : gamma (o) =      89.618831         89.846228
       Cell volume :   (A**3) =     410.240784        391.549799
  ** Time :            0.31000 ps :
     Properties:                   Instantaneous       Averaged
       Kinetic energy    (eV) =       0.406830          0.421234
       Potential energy  (eV) =    -422.765962       -409.524172
       Total energy      (eV) =    -422.359132       -409.102938
       Temperature       (K)  =      49.958278         51.727136
       Pressure         (GPa) =      13.465890         31.456823
       Cell parameter : a (A) =       7.480091          7.342462
       Cell parameter : b (A) =       7.371120          7.287385
       Cell parameter : c (A) =       7.448156          7.320609
       Cell angle : alpha (o) =      89.839190         89.941397
       Cell angle : beta  (o) =      90.610709         90.345605
       Cell angle : gamma (o) =      89.611355         89.842440
       Cell volume :   (A**3) =     410.631907        391.857575
  ** Time :            0.31500 ps :
     Properties:                   Instantaneous       Averaged
       Kinetic energy    (eV) =       0.406818          0.421005
       Potential energy  (eV) =    -422.751870       -409.734135
       Total energy      (eV) =    -422.345052       -409.313130
       Temperature       (K)  =      49.956862         51.699036
       Pressure         (GPa) =      12.470515         31.127961
       Cell parameter : a (A) =       7.482748          7.344689
       Cell parameter : b (A) =       7.372364          7.288734
       Cell parameter : c (A) =       7.450892          7.322677
       Cell angle : alpha (o) =      89.834820         89.939706
       Cell angle : beta  (o) =      90.619484         90.349952
       Cell angle : gamma (o) =      89.604466         89.838663
       Cell volume :   (A**3) =     410.996894        392.161373
  ** Time :            0.32000 ps :
     Properties:                   Instantaneous       Averaged
       Kinetic energy    (eV) =       0.405667          0.420766
       Potential energy  (eV) =    -422.679815       -409.936411
       Total energy      (eV) =    -422.274148       -409.515646
       Temperature       (K)  =      49.815464         51.669605
       Pressure         (GPa) =      12.960074         30.816969
       Cell parameter : a (A) =       7.485463          7.346889
       Cell parameter : b (A) =       7.373617          7.290060
       Cell parameter : c (A) =       7.453540          7.324722
       Cell angle : alpha (o) =      89.830342         89.937997
       Cell angle : beta  (o) =      90.627026         90.354282
       Cell angle : gamma (o) =      89.597463         89.834894
       Cell volume :   (A**3) =     411.360965        392.461367
  ** Time :            0.32500 ps :
     Properties:                   Instantaneous       Averaged
       Kinetic energy    (eV) =       0.406393          0.420545
       Potential energy  (eV) =    -422.619391       -410.131534
       Total energy      (eV) =    -422.212998       -409.710990
       Temperature       (K)  =      49.904684         51.642453
       Pressure         (GPa) =      11.360122         30.492112
       Cell parameter : a (A) =       7.488044          7.349060
       Cell parameter : b (A) =       7.374796          7.291364
       Cell parameter : c (A) =       7.456069          7.326742
       Cell angle : alpha (o) =      89.826985         89.936289
       Cell angle : beta  (o) =      90.634605         90.358594
       Cell angle : gamma (o) =      89.590134         89.831128
       Cell volume :   (A**3) =     411.707249        392.757457
  ** Time :            0.33000 ps :
     Properties:                   Instantaneous       Averaged
       Kinetic energy    (eV) =       0.406910          0.420338
       Potential energy  (eV) =    -422.606176       -410.320544
       Total energy      (eV) =    -422.199266       -409.900206
       Temperature       (K)  =      49.968112         51.617084
       Pressure         (GPa) =      11.694116         30.183261
       Cell parameter : a (A) =       7.490568          7.351204
       Cell parameter : b (A) =       7.375793          7.292643
       Cell parameter : c (A) =       7.458538          7.328739
       Cell angle : alpha (o) =      89.824142         89.934590
       Cell angle : beta  (o) =      90.642613         90.362898
       Cell angle : gamma (o) =      89.582377         89.827359
       Cell volume :   (A**3) =     412.037000        393.049572
  ** Time :            0.33500 ps :
     Properties:                   Instantaneous       Averaged
       Kinetic energy    (eV) =       0.407043          0.420140
       Potential energy  (eV) =    -422.612118       -410.504000
       Total energy      (eV) =    -422.205075       -410.083861
       Temperature       (K)  =      49.984470         51.592717
       Pressure         (GPa) =      12.365956         29.892190
       Cell parameter : a (A) =       7.493389          7.353326
       Cell parameter : b (A) =       7.376838          7.293900
       Cell parameter : c (A) =       7.461005          7.330713
       Cell angle : alpha (o) =      89.820947         89.932894
       Cell angle : beta  (o) =      90.650747         90.367194
       Cell angle : gamma (o) =      89.574410         89.823584
       Cell volume :   (A**3) =     412.385695        393.338171
  ** Time :            0.34000 ps :
     Properties:                   Instantaneous       Averaged
       Kinetic energy    (eV) =       0.407214          0.419949
       Potential energy  (eV) =    -422.654802       -410.682688
       Total energy      (eV) =    -422.247589       -410.262739
       Temperature       (K)  =      50.005438         51.569374
       Pressure         (GPa) =      11.695605         29.600080
       Cell parameter : a (A) =       7.496172          7.355427
       Cell parameter : b (A) =       7.377856          7.295135
       Cell parameter : c (A) =       7.463438          7.332665
       Cell angle : alpha (o) =      89.816000         89.931174
       Cell angle : beta  (o) =      90.658412         90.371476
       Cell angle : gamma (o) =      89.567144         89.819813
       Cell volume :   (A**3) =     412.729205        393.623333
  ** Time :            0.34500 ps :
     Properties:                   Instantaneous       Averaged
       Kinetic energy    (eV) =       0.407581          0.419770
       Potential energy  (eV) =    -422.725357       -410.857220
       Total energy      (eV) =    -422.317777       -410.437450
       Temperature       (K)  =      50.050489         51.547362
       Pressure         (GPa) =      11.405895         29.312613
       Cell parameter : a (A) =       7.498690          7.357503
       Cell parameter : b (A) =       7.378986          7.296350
       Cell parameter : c (A) =       7.465896          7.334596
       Cell angle : alpha (o) =      89.810740         89.929429
       Cell angle : beta  (o) =      90.665639         90.375740
       Cell angle : gamma (o) =      89.559604         89.816042
       Cell volume :   (A**3) =     413.065982        393.905110
  ** Time :            0.35000 ps :
     Properties:                   Instantaneous       Averaged
       Kinetic energy    (eV) =       0.407775          0.419599
       Potential energy  (eV) =    -422.784856       -411.027615
       Total energy      (eV) =    -422.377082       -410.608016
       Temperature       (K)  =      50.074311         51.526318
       Pressure         (GPa) =      11.322750         29.032196
       Cell parameter : a (A) =       7.501285          7.359557
       Cell parameter : b (A) =       7.380111          7.297546
       Cell parameter : c (A) =       7.468249          7.336505
       Cell angle : alpha (o) =      89.806223         89.927669
       Cell angle : beta  (o) =      90.672149         90.379974
       Cell angle : gamma (o) =      89.551668         89.812265
       Cell volume :   (A**3) =     413.401044        394.183624
  ** Time :            0.35500 ps :
     Properties:                   Instantaneous       Averaged
       Kinetic energy    (eV) =       0.407743          0.419432
       Potential energy  (eV) =    -422.864417       -411.194330
       Total energy      (eV) =    -422.456674       -410.774898
       Temperature       (K)  =      50.070455         51.505813
       Pressure         (GPa) =      10.608640         28.750937
       Cell parameter : a (A) =       7.503728          7.361588
       Cell parameter : b (A) =       7.381159          7.298724
       Cell parameter : c (A) =       7.470460          7.338392
       Cell angle : alpha (o) =      89.802307         89.925903
       Cell angle : beta  (o) =      90.679294         90.384190
       Cell angle : gamma (o) =      89.544227         89.808490
       Cell volume :   (A**3) =     413.715740        394.458724
  ** Time :            0.36000 ps :
     Properties:                   Instantaneous       Averaged
       Kinetic energy    (eV) =       0.407381          0.419264
       Potential energy  (eV) =    -422.935769       -411.357406
       Total energy      (eV) =    -422.528388       -410.938141
       Temperature       (K)  =      50.025971         51.485259
       Pressure         (GPa) =      10.277209         28.473565
       Cell parameter : a (A) =       7.506088          7.363595
       Cell parameter : b (A) =       7.382162          7.299883
       Cell parameter : c (A) =       7.472598          7.340256
       Cell angle : alpha (o) =      89.797719         89.924123
       Cell angle : beta  (o) =      90.686354         90.388387
       Cell angle : gamma (o) =      89.536825         89.804717
       Cell volume :   (A**3) =     414.019372        394.730400
  ** Time :            0.36500 ps :
     Properties:                   Instantaneous       Averaged
       Kinetic energy    (eV) =       0.407101          0.419098
       Potential energy  (eV) =    -422.966657       -411.516437
       Total energy      (eV) =    -422.559556       -411.097339
       Temperature       (K)  =      49.991606         51.464798
       Pressure         (GPa) =      10.185878         28.202879
       Cell parameter : a (A) =       7.508282          7.365577
       Cell parameter : b (A) =       7.383211          7.301024
       Cell parameter : c (A) =       7.474743          7.342098
       Cell angle : alpha (o) =      89.792703         89.922323
       Cell angle : beta  (o) =      90.692775         90.392556
       Cell angle : gamma (o) =      89.528761         89.800936
       Cell volume :   (A**3) =     414.316936        394.998708
  ** Time :            0.37000 ps :
     Properties:                   Instantaneous       Averaged
       Kinetic energy    (eV) =       0.407204          0.418937
       Potential energy  (eV) =    -422.991965       -411.671511
       Total energy      (eV) =    -422.584762       -411.252574
       Temperature       (K)  =      50.004223         51.445061
       Pressure         (GPa) =       9.897256         27.935773
       Cell parameter : a (A) =       7.510456          7.367535
       Cell parameter : b (A) =       7.384312          7.302150
       Cell parameter : c (A) =       7.476790          7.343919
       Cell angle : alpha (o) =      89.788415         89.920513
       Cell angle : beta  (o) =      90.699194         90.396700
       Cell angle : gamma (o) =      89.520346         89.797145
       Cell volume :   (A**3) =     414.610993        395.263739
  ** Time :            0.37500 ps :
     Properties:                   Instantaneous       Averaged
       Kinetic energy    (eV) =       0.407000          0.418778
       Potential energy  (eV) =    -423.013186       -411.822734
       Total energy      (eV) =    -422.606187       -411.403956
       Temperature       (K)  =      49.979140         51.425515
       Pressure         (GPa) =       9.623179         27.672609
       Cell parameter : a (A) =       7.512715          7.369471
       Cell parameter : b (A) =       7.385334          7.303259
       Cell parameter : c (A) =       7.478682          7.345715
       Cell angle : alpha (o) =      89.784898         89.918705
       Cell angle : beta  (o) =      90.705902         90.400823
       Cell angle : gamma (o) =      89.512459         89.793349
       Cell volume :   (A**3) =     414.896932        395.525515
  ** Time :            0.38000 ps :
     Properties:                   Instantaneous       Averaged
       Kinetic energy    (eV) =       0.407243          0.418626
       Potential energy  (eV) =    -423.026719       -411.970154
       Total energy      (eV) =    -422.619476       -411.551528
       Temperature       (K)  =      50.009008         51.406877
       Pressure         (GPa) =       9.235537         27.411920
       Cell parameter : a (A) =       7.514943          7.371385
       Cell parameter : b (A) =       7.386210          7.304351
       Cell parameter : c (A) =       7.480555          7.347490
       Cell angle : alpha (o) =      89.781328         89.916897
       Cell angle : beta  (o) =      90.712391         90.404922
       Cell angle : gamma (o) =      89.505115         89.789556
       Cell volume :   (A**3) =     415.172046        395.784022
  ** Time :            0.38500 ps :
     Properties:                   Instantaneous       Averaged
       Kinetic energy    (eV) =       0.407451          0.418481
       Potential energy  (eV) =    -423.068071       -412.114283
       Total energy      (eV) =    -422.660620       -411.695802
       Temperature       (K)  =      50.034592         51.389055
       Pressure         (GPa) =       9.093465         27.156579
       Cell parameter : a (A) =       7.517063          7.373277
       Cell parameter : b (A) =       7.387127          7.305426
       Cell parameter : c (A) =       7.482362          7.349241
       Cell angle : alpha (o) =      89.777894         89.915092
       Cell angle : beta  (o) =      90.718878         90.409000
       Cell angle : gamma (o) =      89.497717         89.785766
       Cell volume :   (A**3) =     415.439833        396.039292
  ** Time :            0.39000 ps :
     Properties:                   Instantaneous       Averaged
       Kinetic energy    (eV) =       0.407886          0.418345
       Potential energy  (eV) =    -423.139699       -412.255635
       Total energy      (eV) =    -422.731813       -411.837290
       Temperature       (K)  =      50.087945         51.372374
[...]
       Cell parameter : b (A) =       7.375729          7.380233
       Cell parameter : c (A) =       7.563292          7.540388
       Cell angle : alpha (o) =      88.516411         88.972075
       Cell angle : beta  (o) =      91.839146         91.480398
       Cell angle : gamma (o) =      87.652630         88.299204
       Cell volume :   (A**3) =     425.849996        423.656234
  ** Time :            4.90000 ps :
     Properties:                   Instantaneous       Averaged
       Kinetic energy    (eV) =       0.408044          0.408027
       Potential energy  (eV) =    -423.938824       -422.906502
       Total energy      (eV) =    -423.530780       -422.498475
       Temperature       (K)  =      50.107406         50.105336
       Pressure         (GPa) =      -0.561181          2.424864
       Cell parameter : a (A) =       7.646753          7.619959
       Cell parameter : b (A) =       7.375792          7.380228
       Cell parameter : c (A) =       7.563111          7.540412
       Cell angle : alpha (o) =      88.515937         88.971610
       Cell angle : beta  (o) =      91.839709         91.480765
       Cell angle : gamma (o) =      87.650999         88.298542
       Cell volume :   (A**3) =     425.829609        423.658452
  ** Time :            4.90500 ps :
     Properties:                   Instantaneous       Averaged
       Kinetic energy    (eV) =       0.406272          0.408025
       Potential energy  (eV) =    -423.955810       -422.907571
       Total energy      (eV) =    -423.549537       -422.499546
       Temperature       (K)  =      49.889832         50.105116
       Pressure         (GPa) =      -0.173950          2.422289
       Cell parameter : a (A) =       7.646550          7.619987
       Cell parameter : b (A) =       7.375828          7.380224
       Cell parameter : c (A) =       7.563052          7.540435
       Cell angle : alpha (o) =      88.515578         88.971145
       Cell angle : beta  (o) =      91.840164         91.481131
       Cell angle : gamma (o) =      87.649735         88.297881
       Cell volume :   (A**3) =     425.816486        423.660651
  ** Time :            4.91000 ps :
     Properties:                   Instantaneous       Averaged
       Kinetic energy    (eV) =       0.407055          0.408024
       Potential energy  (eV) =    -423.900925       -422.908583
       Total energy      (eV) =    -423.493870       -422.500558
       Temperature       (K)  =      49.986011         50.104995
       Pressure         (GPa) =       0.036072          2.419873
       Cell parameter : a (A) =       7.646511          7.620014
       Cell parameter : b (A) =       7.375722          7.380219
       Cell parameter : c (A) =       7.563171          7.540458
       Cell angle : alpha (o) =      88.514901         88.970680
       Cell angle : beta  (o) =      91.840916         91.481498
       Cell angle : gamma (o) =      87.648384         88.297220
       Cell volume :   (A**3) =     425.814132        423.662844
  ** Time :            4.91500 ps :
     Properties:                   Instantaneous       Averaged
       Kinetic energy    (eV) =       0.407496          0.408024
       Potential energy  (eV) =    -423.929324       -422.909621
       Total energy      (eV) =    -423.521828       -422.501597
       Temperature       (K)  =      50.040106         50.104929
       Pressure         (GPa) =       0.102112          2.417500
       Cell parameter : a (A) =       7.646623          7.620041
       Cell parameter : b (A) =       7.375693          7.380215
       Cell parameter : c (A) =       7.563149          7.540481
       Cell angle : alpha (o) =      88.514011         88.970216
       Cell angle : beta  (o) =      91.841171         91.481864
       Cell angle : gamma (o) =      87.646523         88.296558
       Cell volume :   (A**3) =     425.816664        423.665035
  ** Time :            4.92000 ps :
     Properties:                   Instantaneous       Averaged
       Kinetic energy    (eV) =       0.406431          0.408022
       Potential energy  (eV) =    -423.895544       -422.910623
       Total energy      (eV) =    -423.489114       -422.502601
       Temperature       (K)  =      49.909293         50.104730
       Pressure         (GPa) =       0.221612          2.415225
       Cell parameter : a (A) =       7.646697          7.620068
       Cell parameter : b (A) =       7.375792          7.380210
       Cell parameter : c (A) =       7.563125          7.540504
       Cell angle : alpha (o) =      88.512640         88.969751
       Cell angle : beta  (o) =      91.841257         91.482229
       Cell angle : gamma (o) =      87.645037         88.295896
       Cell volume :   (A**3) =     425.824341        423.667230
  ** Time :            4.92500 ps :
     Properties:                   Instantaneous       Averaged
       Kinetic energy    (eV) =       0.407618          0.408022
       Potential energy  (eV) =    -423.866567       -422.911594
       Total energy      (eV) =    -423.458949       -422.503572
       Temperature       (K)  =      50.055097         50.104679
       Pressure         (GPa) =      -0.062950          2.412701
       Cell parameter : a (A) =       7.646650          7.620095
       Cell parameter : b (A) =       7.375940          7.380206
       Cell parameter : c (A) =       7.563044          7.540527
       Cell angle : alpha (o) =      88.511714         88.969286
       Cell angle : beta  (o) =      91.840321         91.482593
       Cell angle : gamma (o) =      87.645106         88.295235
       Cell volume :   (A**3) =     425.825797        423.669421
  ** Time :            4.93000 ps :
     Properties:                   Instantaneous       Averaged
       Kinetic energy    (eV) =       0.406362          0.408020
       Potential energy  (eV) =    -423.906855       -422.912603
       Total energy      (eV) =    -423.500493       -422.504583
       Temperature       (K)  =      49.900869         50.104473
       Pressure         (GPa) =       0.376105          2.410635
       Cell parameter : a (A) =       7.646685          7.620122
       Cell parameter : b (A) =       7.375982          7.380201
       Cell parameter : c (A) =       7.562958          7.540550
       Cell angle : alpha (o) =      88.512100         88.968822
       Cell angle : beta  (o) =      91.839514         91.482954
       Cell angle : gamma (o) =      87.645732         88.294576
       Cell volume :   (A**3) =     425.825831        423.671608
  ** Time :            4.93500 ps :
     Properties:                   Instantaneous       Averaged
       Kinetic energy    (eV) =       0.407056          0.408019
       Potential energy  (eV) =    -423.811663       -422.913514
       Total energy      (eV) =    -423.404607       -422.505495
       Temperature       (K)  =      49.986065         50.104353
       Pressure         (GPa) =       1.175417          2.409225
       Cell parameter : a (A) =       7.646923          7.620149
       Cell parameter : b (A) =       7.375987          7.380197
       Cell parameter : c (A) =       7.563217          7.540573
       Cell angle : alpha (o) =      88.513190         88.968360
       Cell angle : beta  (o) =      91.840232         91.483316
       Cell angle : gamma (o) =      87.645367         88.293918
       Cell volume :   (A**3) =     425.853845        423.673819
  ** Time :            4.94000 ps :
     Properties:                   Instantaneous       Averaged
       Kinetic energy    (eV) =       0.408529          0.408020
       Potential energy  (eV) =    -423.930910       -422.914544
       Total energy      (eV) =    -423.522380       -422.506524
       Temperature       (K)  =      50.166992         50.104416
       Pressure         (GPa) =       0.918731          2.407528
       Cell parameter : a (A) =       7.647161          7.620176
       Cell parameter : b (A) =       7.376099          7.380193
       Cell parameter : c (A) =       7.563465          7.540596
       Cell angle : alpha (o) =      88.513350         88.967900
       Cell angle : beta  (o) =      91.840900         91.483678
       Cell angle : gamma (o) =      87.644712         88.293261
       Cell volume :   (A**3) =     425.887200        423.676060
  ** Time :            4.94500 ps :
     Properties:                   Instantaneous       Averaged
       Kinetic energy    (eV) =       0.407072          0.408019
       Potential energy  (eV) =    -423.959244       -422.915600
       Total energy      (eV) =    -423.552172       -422.507581
       Temperature       (K)  =      49.988011         50.104298
       Pressure         (GPa) =       0.256351          2.405244
       Cell parameter : a (A) =       7.647199          7.620203
       Cell parameter : b (A) =       7.376143          7.380189
       Cell parameter : c (A) =       7.563727          7.540619
       Cell angle : alpha (o) =      88.512261         88.967439
       Cell angle : beta  (o) =      91.841228         91.484040
       Cell angle : gamma (o) =      87.644982         88.292606
       Cell volume :   (A**3) =     425.906478        423.678315
  ** Time :            4.95000 ps :
     Properties:                   Instantaneous       Averaged
       Kinetic energy    (eV) =       0.406892          0.408018
       Potential energy  (eV) =    -423.943507       -422.916638
       Total energy      (eV) =    -423.536615       -422.508621
       Temperature       (K)  =      49.965974         50.104159
       Pressure         (GPa) =       0.030955          2.402848
       Cell parameter : a (A) =       7.647293          7.620231
       Cell parameter : b (A) =       7.376086          7.380185
       Cell parameter : c (A) =       7.563684          7.540642
       Cell angle : alpha (o) =      88.511921         88.966979
       Cell angle : beta  (o) =      91.840610         91.484400
       Cell angle : gamma (o) =      87.645270         88.291952
       Cell volume :   (A**3) =     425.906118        423.680565
  ** Time :            4.95500 ps :
     Properties:                   Instantaneous       Averaged
       Kinetic energy    (eV) =       0.406193          0.408016
       Potential energy  (eV) =    -423.932179       -422.917663
       Total energy      (eV) =    -423.525987       -422.509647
       Temperature       (K)  =      49.880048         50.103933
       Pressure         (GPa) =      -0.636190          2.399833
       Cell parameter : a (A) =       7.647420          7.620258
       Cell parameter : b (A) =       7.375923          7.380180
       Cell parameter : c (A) =       7.563565          7.540666
       Cell angle : alpha (o) =      88.512405         88.966520
       Cell angle : beta  (o) =      91.840039         91.484759
       Cell angle : gamma (o) =      87.644180         88.291298
       Cell volume :   (A**3) =     425.896942        423.682802
  ** Time :            4.96000 ps :
     Properties:                   Instantaneous       Averaged
       Kinetic energy    (eV) =       0.406548          0.408014
       Potential energy  (eV) =    -423.858632       -422.918612
       Total energy      (eV) =    -423.452084       -422.510597
       Temperature       (K)  =      49.923733         50.103751
       Pressure         (GPa) =      -0.500878          2.397013
       Cell parameter : a (A) =       7.647191          7.620285
       Cell parameter : b (A) =       7.375718          7.380176
       Cell parameter : c (A) =       7.563685          7.540689
       Cell angle : alpha (o) =      88.512473         88.966062
       Cell angle : beta  (o) =      91.840340         91.485117
       Cell angle : gamma (o) =      87.642366         88.290644
       Cell volume :   (A**3) =     425.878498        423.685015
  ** Time :            4.96500 ps :
     Properties:                   Instantaneous       Averaged
       Kinetic energy    (eV) =       0.408165          0.408014
       Potential energy  (eV) =    -423.866872       -422.919567
       Total energy      (eV) =    -423.458708       -422.511552
       Temperature       (K)  =      50.122208         50.103770
       Pressure         (GPa) =      -0.416794          2.394260
       Cell parameter : a (A) =       7.646967          7.620312
       Cell parameter : b (A) =       7.375710          7.380171
       Cell parameter : c (A) =       7.563668          7.540712
       Cell angle : alpha (o) =      88.512071         88.965605
       Cell angle : beta  (o) =      91.839988         91.485475
       Cell angle : gamma (o) =      87.640764         88.289990
       Cell volume :   (A**3) =     425.864062        423.687209
  ** Time :            4.97000 ps :
     Properties:                   Instantaneous       Averaged
       Kinetic energy    (eV) =       0.407753          0.408014
       Potential energy  (eV) =    -423.976952       -422.920630
       Total energy      (eV) =    -423.569199       -422.512616
       Temperature       (K)  =      50.071638         50.103737
       Pressure         (GPa) =      -0.435480          2.391487
       Cell parameter : a (A) =       7.646853          7.620339
       Cell parameter : b (A) =       7.375695          7.380167
       Cell parameter : c (A) =       7.563568          7.540735
       Cell angle : alpha (o) =      88.512208         88.965149
       Cell angle : beta  (o) =      91.840063         91.485832
       Cell angle : gamma (o) =      87.640013         88.289336
       Cell volume :   (A**3) =     425.851026        423.689386
  ** Time :            4.97500 ps :
     Properties:                   Instantaneous       Averaged
       Kinetic energy    (eV) =       0.405887          0.408012
       Potential energy  (eV) =    -423.913731       -422.921629
       Total energy      (eV) =    -423.507844       -422.513617
       Temperature       (K)  =      49.842524         50.103475
       Pressure         (GPa) =       0.077893          2.389201
       Cell parameter : a (A) =       7.646869          7.620366
       Cell parameter : b (A) =       7.375682          7.380162
       Cell parameter : c (A) =       7.563443          7.540758
       Cell angle : alpha (o) =      88.512677         88.964694
       Cell angle : beta  (o) =      91.840734         91.486188
       Cell angle : gamma (o) =      87.639631         88.288683
       Cell volume :   (A**3) =     425.843917        423.691552
  ** Time :            4.98000 ps :
     Properties:                   Instantaneous       Averaged
       Kinetic energy    (eV) =       0.406764          0.408011
       Potential energy  (eV) =    -423.851787       -422.922562
       Total energy      (eV) =    -423.445023       -422.514552
       Temperature       (K)  =      49.950200         50.103321
       Pressure         (GPa) =       0.408477          2.387154
       Cell parameter : a (A) =       7.646861          7.620392
       Cell parameter : b (A) =       7.375762          7.380158
       Cell parameter : c (A) =       7.563563          7.540781
       Cell angle : alpha (o) =      88.511774         88.964240
       Cell angle : beta  (o) =      91.842260         91.486546
       Cell angle : gamma (o) =      87.639801         88.288031
       Cell volume :   (A**3) =     425.854415        423.693723
  ** Time :            4.98500 ps :
     Properties:                   Instantaneous       Averaged
       Kinetic energy    (eV) =       0.407760          0.408011
       Potential energy  (eV) =    -423.887369       -422.923530
       Total energy      (eV) =    -423.479609       -422.515520
       Temperature       (K)  =      50.072495         50.103290
       Pressure         (GPa) =      -0.199246          2.384541
       Cell parameter : a (A) =       7.646749          7.620419
       Cell parameter : b (A) =       7.375816          7.380154
       Cell parameter : c (A) =       7.563689          7.540804
       Cell angle : alpha (o) =      88.509580         88.963784
       Cell angle : beta  (o) =      91.844037         91.486904
       Cell angle : gamma (o) =      87.640834         88.287382
       Cell volume :   (A**3) =     425.857793        423.695894
  ** Time :            4.99000 ps :
     Properties:                   Instantaneous       Averaged
       Kinetic energy    (eV) =       0.407111          0.408010
       Potential energy  (eV) =    -423.918534       -422.924527
       Total energy      (eV) =    -423.511423       -422.516518
       Temperature       (K)  =      49.992810         50.103179
       Pressure         (GPa) =      -0.307528          2.381897
       Cell parameter : a (A) =       7.646666          7.620445
       Cell parameter : b (A) =       7.375845          7.380149
       Cell parameter : c (A) =       7.563570          7.540826
       Cell angle : alpha (o) =      88.508163         88.963327
       Cell angle : beta  (o) =      91.843779         91.487262
       Cell angle : gamma (o) =      87.641889         88.286735
       Cell volume :   (A**3) =     425.848270        423.698050
  ** Time :            4.99500 ps :
     Properties:                   Instantaneous       Averaged
       Kinetic energy    (eV) =       0.406907          0.408009
       Potential energy  (eV) =    -423.873157       -422.925477
       Total energy      (eV) =    -423.466250       -422.517468
       Temperature       (K)  =      49.967765         50.103044
       Pressure         (GPa) =      -0.121015          2.379428
       Cell parameter : a (A) =       7.646611          7.620471
       Cell parameter : b (A) =       7.375816          7.380145
       Cell parameter : c (A) =       7.563531          7.540849
       Cell angle : alpha (o) =      88.507868         88.962871
       Cell angle : beta  (o) =      91.842701         91.487618
       Cell angle : gamma (o) =      87.642253         88.286090
       Cell volume :   (A**3) =     425.841611        423.700196
  ** Time :            5.00000 ps :
     Properties:                   Instantaneous       Averaged
       Kinetic energy    (eV) =       0.407095          0.408008
       Potential energy  (eV) =    -423.858333       -422.926410
       Total energy      (eV) =    -423.451239       -422.518402
       Temperature       (K)  =      49.990820         50.102931
       Pressure         (GPa) =      -0.015619          2.377041
       Cell parameter : a (A) =       7.646506          7.620497
       Cell parameter : b (A) =       7.375882          7.380141
       Cell parameter : c (A) =       7.563540          7.540872
       Cell angle : alpha (o) =      88.508407         88.962417
       Cell angle : beta  (o) =      91.842031         91.487972
       Cell angle : gamma (o) =      87.641919         88.285446
       Cell volume :   (A**3) =     425.840285        423.702336

  Peak dynamic memory used =       1.98 MB 


  Timing analysis for GULP :

--------------------------------------------------------------------------------
  Task / Subroutine                                          Time (Seconds)
--------------------------------------------------------------------------------
  Calculation of Brenner energy and derivatives                 360.8687
  Calculation of matrix inversion                                 0.1984
  Molecular dynamics - update of geometry                         1.3870
  Molecular dynamics - predictor                                  0.1239
  Molecular dynamics - corrector                                  2.1837
  Molecular dynamics - velocity correction                        1.0105
--------------------------------------------------------------------------------
  Total CPU time                                                367.2497
--------------------------------------------------------------------------------


  CIF file written as dm.cif


  Job Finished at 14:08.23 31st July       2020                               

