********************************************************************************
*                       GENERAL UTILITY LATTICE PROGRAM                        *
*                                 Julian Gale                                  *
*                       Curtin Institute for Computation                       *
*                    School of Molecular and Life Sciences                     *
*                    Curtin University, Western Australia                      *
********************************************************************************
* Version = 5.2.0 * Last modified =  17th December 2019                        *
********************************************************************************
*  optimise     - perform optimisation run                                     *
*  conp         - constant pressure calculation                                *
*  isotropic    - only isotropic cell expansion to be allowed                  *
*  property     - calculate properties for final geometry                      *
*  phonon       - calculate phonons for final geometry                         *
*  lbfgs        - use limited memory BFGS update                               *
********************************************************************************
* ASE calculation                                                              *
********************************************************************************


  Job Started  at 14:08.29 31st July       2020                               

  Number of CPUs =     1


  Total number of configurations input =      1

********************************************************************************
*  Input for Configuration =   1                                               *
********************************************************************************

  Formula = C64                                                         

  Number of irreducible atoms/shells =      64


  Total number atoms/shells =      64

  Dimensionality = 3               :  Bulk   



  Cartesian lattice vectors (Angstroms) :

        7.644100    0.000000    0.000000
        0.303387    7.367356    0.000000
       -0.243040    0.206994    7.554358

  Cell parameters (Angstroms/Degrees):

  a =       7.6441    alpha =  88.5084
  b =       7.3736    beta  =  91.8420
  c =       7.5611    gamma =  87.6419

  Initial cell volume =         425.437287 Angs**3

  Temperature of configuration =   0.00     K 

  Pressure of configuration =         0.000 GPa 

  Fractional coordinates of asymmetric unit :

--------------------------------------------------------------------------------
   No.  Atomic       x           y          z         Charge      Occupancy
        Label      (Frac)      (Frac)     (Frac)        (e)         (Frac)  
--------------------------------------------------------------------------------
      1 C     c    0.035780    0.526170    0.339890     0.00000    1.000000    
      2 C     c    0.229590 *  0.062470 *  0.070680 *   0.00000    1.000000    
      3 C     c    0.086740 *  0.372580 *  0.241540 *   0.00000    1.000000    
      4 C     c    0.849890 *  0.908360 *  0.422460 *   0.00000    1.000000    
      5 C     c    0.441280 *  0.873720 *  0.947590 *   0.00000    1.000000    
      6 C     c    0.787440 *  0.429530 *  0.218620 *   0.00000    1.000000    
      7 C     c    0.901960 *  0.595110 *  0.684440 *   0.00000    1.000000    
      8 C     c    0.792250 *  0.510990 *  0.553950 *   0.00000    1.000000    
      9 C     c    0.109330 *  0.341370 *  0.597450 *   0.00000    1.000000    
     10 C     c    0.368560 *  0.720100 *  0.087270 *   0.00000    1.000000    
     11 C     c    0.859240 *  0.209770 *  0.708270 *   0.00000    1.000000    
     12 C     c    0.544100 *  0.861310 *  0.508880 *   0.00000    1.000000    
     13 C     c    0.399810 *  0.199970 *  0.585870 *   0.00000    1.000000    
     14 C     c    0.169580 *  0.946440 *  0.765170 *   0.00000    1.000000    
     15 C     c    0.498500 *  0.562480 *  0.365890 *   0.00000    1.000000    
     16 C     c    0.950810 *  0.898420 *  0.079280 *   0.00000    1.000000    
     17 C     c    0.116990 *  0.779030 *  0.831300 *   0.00000    1.000000    
     18 C     c    0.273570 *  0.686230 *  0.563680 *   0.00000    1.000000    
     19 C     c    0.707320 *  0.344640 *  0.642410 *   0.00000    1.000000    
     20 C     c    0.019610 *  0.197340 *  0.239350 *   0.00000    1.000000    
     21 C     c    0.914960 *  0.113770 *  0.392490 *   0.00000    1.000000    
     22 C     c    0.837630 *  0.564860 *  0.366020 *   0.00000    1.000000    
     23 C     c    0.432980 *  0.789650 *  0.634100 *   0.00000    1.000000    
     24 C     c    0.769270 *  0.240050 *  0.292990 *   0.00000    1.000000    
     25 C     c    0.643930 *  0.119910 *  0.979490 *   0.00000    1.000000    
     26 C     c    0.485730 *  0.554490 *  0.047940 *   0.00000    1.000000    
     27 C     c    0.577200 *  0.241410 *  0.526410 *   0.00000    1.000000    
     28 C     c    0.601420 *  0.945080 *  0.073870 *   0.00000    1.000000    
     29 C     c    0.456300 *  0.873520 *  0.209870 *   0.00000    1.000000    
     30 C     c    0.305050 *  0.022220 *  0.885080 *   0.00000    1.000000    
     31 C     c    0.783880 *  0.070020 *  0.850190 *   0.00000    1.000000    
     32 C     c    0.845150 *  0.726130 *  0.803670 *   0.00000    1.000000    
     33 C     c    0.277250 *  0.359650 *  0.526010 *   0.00000    1.000000    
     34 C     c    0.192240 *  0.651360 *  0.147020 *   0.00000    1.000000    
     35 C     c    0.059800 *  0.466190 *  0.745160 *   0.00000    1.000000    
     36 C     c    0.299400 *  0.059080 *  0.468830 *   0.00000    1.000000    
     37 C     c    0.158120 *  0.690640 *  0.365300 *   0.00000    1.000000    
     38 C     c    0.510810 *  0.270950 *  0.909310 *   0.00000    1.000000    
     39 C     c    0.030260 *  0.084690 *  0.074760 *   0.00000    1.000000    
     40 C     c    0.731350 *  0.898160 *  0.760240 *   0.00000    1.000000    
     41 C     c    0.354530 *  0.518850 *  0.467700 *   0.00000    1.000000    
     42 C     c    0.050530 *  0.856680 *  0.457030 *   0.00000    1.000000    
     43 C     c    0.032710 *  0.391020 *  0.935900 *   0.00000    1.000000    
     44 C     c    0.198350 *  0.432400 *  0.080030 *   0.00000    1.000000    
     45 C     c    0.156630 *  0.641120 *  0.718440 *   0.00000    1.000000    
     46 C     c    0.878180 *  0.482020 *  0.050850 *   0.00000    1.000000    
     47 C     c    0.770670 *  0.816050 *  0.111880 *   0.00000    1.000000    
     48 C     c    0.956570 *  0.195360 *  0.913820 *   0.00000    1.000000    
     49 C     c    0.760580 *  0.757830 *  0.309070 *   0.00000    1.000000    
     50 C     c    0.784460 *  0.652370 *  0.979350 *   0.00000    1.000000    
     51 C     c    0.134860 *  0.001610 *  0.567360 *   0.00000    1.000000    
     52 C     c    0.449340 *  0.221950 *  0.230520 *   0.00000    1.000000    
     53 C     c    0.398790 *  0.353130 *  0.068820 *   0.00000    1.000000    
     54 C     c    0.340680 *  0.047910 *  0.256940 *   0.00000    1.000000    
     55 C     c    0.598360 *  0.221420 *  0.346800 *   0.00000    1.000000    
     56 C     c    0.391290 *  0.170980 *  0.786620 *   0.00000    1.000000    
     57 C     c    0.608190 *  0.415170 *  0.804460 *   0.00000    1.000000    
     58 C     c    0.706980 *  0.925380 *  0.564050 *   0.00000    1.000000    
     59 C     c    0.070550 *  0.762920 *  0.012520 *   0.00000    1.000000    
     60 C     c    0.578950 *  0.471410 *  0.218930 *   0.00000    1.000000    
     61 C     c    0.558470 *  0.760520 *  0.348430 *   0.00000    1.000000    
     62 C     c    0.998680 *  0.176400 *  0.572620 *   0.00000    1.000000    
     63 C     c    0.602800 *  0.596610 *  0.896230 *   0.00000    1.000000    
     64 C     c    0.545760 *  0.785700 *  0.804830 *   0.00000    1.000000    
--------------------------------------------------------------------------------


  Constraints : 

--------------------------------------------------------------------------------
  Constraint no.      Unconstrained     Constrained    Coefficient    Offset
                         Variable         Variable
--------------------------------------------------------------------------------
           1              Strain 1        Strain 2       1.00000      0.0000
           2              Strain 1        Strain 3       1.00000      0.0000
--------------------------------------------------------------------------------

  Brillouin zone sampling points :

--------------------------------------------------------------------------------
  Point number          x          y          z            Weight
--------------------------------------------------------------------------------
        1           0.000000   0.000000   0.000000     1.00000000
--------------------------------------------------------------------------------


********************************************************************************
*  General input information                                                   *
********************************************************************************

  Species output for all configurations : 

--------------------------------------------------------------------------------
  Species    Type    Atomic    Atomic    Charge       Radii (Angs)     Library
                     Number     Mass       (e)     Cova   Ionic  VDW   Symbol
--------------------------------------------------------------------------------
    C        Core        6      12.01   0.000000   0.770  0.000  1.530          
--------------------------------------------------------------------------------


  Lattice summation method               =    Ewald          (3-D)
                                         =    Parry          (2-D)
                                         =    Saunders et al (1-D)
  Accuracy factor for lattice sums       =   12.000


  Analytic derivatives to be used

  Time limit = Infinity

  Maximum range for interatomic potentials =    100000.000000 Angstroms

  Brenner et al 2002 potential to be used with explicit splines for P


********************************************************************************
*  Output for configuration   1                                                *
********************************************************************************


  Components of energy : 

--------------------------------------------------------------------------------
  Interatomic potentials     =           0.00000000 eV    
  Brenner potentials         =        -424.31778863 eV    
  Monopole - monopole (real) =           0.00000000 eV    
  Monopole - monopole (recip)=           0.00000000 eV    
  Monopole - monopole (total)=           0.00000000 eV    
--------------------------------------------------------------------------------
  Total lattice energy       =        -424.31778863 eV    
--------------------------------------------------------------------------------
  Total lattice energy       =          -40940.1803 kJ/(mole unit cells)
--------------------------------------------------------------------------------


  Number of variables =      190

  Maximum number of calculations  =          2000
  Maximum Hessian update interval =            10
  Maximum step size               =   1.000000000
  Maximum parameter tolerance     =   0.000010000
  Maximum function  tolerance     =   0.000010000
  Maximum gradient  tolerance     =   0.001000000
  Maximum gradient  component     =   0.010000000

  Maximum LM gradient tolerance   =   0.900000000
  Symmetry not applied to optimisation

  Cell parameters to be optimised using strains

  Limited Memory BFGS to be used of order   10

  BFGS hessian update to be used

  Lower half triangular hessian to be used

  Start of bulk optimisation :

  Cycle:      0 Energy:      -424.317789  Gnorm:      0.000761  CPU:    0.064
  Cycle:      1 Energy:      -424.317789  Gnorm:      0.000522  CPU:    0.104
  Cycle:      2 Energy:      -424.317789  Gnorm:      0.000265  CPU:    0.138
  Cycle:      3 Energy:      -424.317789  Gnorm:      0.000314  CPU:    0.178
  Cycle:      4 Energy:      -424.317789  Gnorm:      0.000314  CPU:    0.508
  Cycle:      5 Energy:      -424.317789  Gnorm:      0.000314  CPU:    0.593
  Cycle:      6 Energy:      -424.317789  Gnorm:      0.000170  CPU:    0.644
  Cycle:      7 Energy:      -424.317789  Gnorm:      0.000170  CPU:    0.722
  Cycle:      8 Energy:      -424.317789  Gnorm:      0.000170  CPU:    0.816
  Cycle:      9 Energy:      -424.317789  Gnorm:      0.000170  CPU:    0.896


  **** Optimisation achieved ****


  Final energy =    -424.31778947 eV
  Final Gnorm  =       0.00011397

  Components of energy : 

--------------------------------------------------------------------------------
  Interatomic potentials     =           0.00000000 eV    
  Brenner potentials         =        -424.31778947 eV    
  Monopole - monopole (real) =           0.00000000 eV    
  Monopole - monopole (recip)=           0.00000000 eV    
  Monopole - monopole (total)=           0.00000000 eV    
--------------------------------------------------------------------------------
  Total lattice energy       =        -424.31778947 eV    
--------------------------------------------------------------------------------
  Total lattice energy       =          -40940.1804 kJ/(mole unit cells)
--------------------------------------------------------------------------------

  Final fractional coordinates of atoms :

--------------------------------------------------------------------------------
   No.  Atomic        x           y          z          Radius
        Label       (Frac)      (Frac)     (Frac)       (Angs) 
--------------------------------------------------------------------------------
     1  C     c     0.035780    0.526170    0.339890    0.000000
     2  C     c     0.229588    0.062468    0.070680    0.000000
     3  C     c     0.086742    0.372583    0.241540    0.000000
     4  C     c     0.849892    0.908359    0.422458    0.000000
     5  C     c     0.441279    0.873720    0.947591    0.000000
     6  C     c     0.787439    0.429528    0.218619    0.000000
     7  C     c     0.901960    0.595108    0.684441    0.000000
     8  C     c     0.792252    0.510992    0.553952    0.000000
     9  C     c     0.109327    0.341374    0.597452    0.000000
    10  C     c     0.368562    0.720100    0.087269    0.000000
    11  C     c     0.859237    0.209769    0.708268    0.000000
    12  C     c     0.544101    0.861311    0.508884    0.000000
    13  C     c     0.399812    0.199970    0.585866    0.000000
    14  C     c     0.169578    0.946441    0.765175    0.000000
    15  C     c     0.498499    0.562484    0.365892    0.000000
    16  C     c     0.950814    0.898421    0.079278    0.000000
    17  C     c     0.116991    0.779031    0.831303    0.000000
    18  C     c     0.273573    0.686227    0.563679    0.000000
    19  C     c     0.707322    0.344639    0.642409    0.000000
    20  C     c     0.019611    0.197340    0.239353    0.000000
    21  C     c     0.914963    0.113768    0.392489    0.000000
    22  C     c     0.837627    0.564858    0.366020    0.000000
    23  C     c     0.432979    0.789651    0.634097    0.000000
    24  C     c     0.769264    0.240055    0.292989    0.000000
    25  C     c     0.643933    0.119911    0.979493    0.000000
    26  C     c     0.485730    0.554492    0.047942    0.000000
    27  C     c     0.577201    0.241411    0.526412    0.000000
    28  C     c     0.601417    0.945078    0.073871    0.000000
    29  C     c     0.456298    0.873520    0.209868    0.000000
    30  C     c     0.305053    0.022217    0.885076    0.000000
    31  C     c     0.783881    0.070022    0.850188    0.000000
    32  C     c     0.845148    0.726131    0.803667    0.000000
    33  C     c     0.277247    0.359647    0.526010    0.000000
    34  C     c     0.192241    0.651360    0.147018    0.000000
    35  C     c     0.059803    0.466190    0.745157    0.000000
    36  C     c     0.299400    0.059081    0.468832    0.000000
    37  C     c     0.158119    0.690640    0.365301    0.000000
    38  C     c     0.510808    0.270954    0.909306    0.000000
    39  C     c     0.030258    0.084691    0.074760    0.000000
    40  C     c     0.731349    0.898159    0.760241    0.000000
    41  C     c     0.354530    0.518852    0.467702    0.000000
    42  C     c     0.050528    0.856682    0.457030    0.000000
    43  C     c     0.032708    0.391019    0.935901    0.000000
    44  C     c     0.198347    0.432400    0.080032    0.000000
    45  C     c     0.156630    0.641120    0.718438    0.000000
    46  C     c     0.878178    0.482021    0.050851    0.000000
    47  C     c     0.770672    0.816052    0.111882    0.000000
    48  C     c     0.956570    0.195361    0.913819    0.000000
    49  C     c     0.760578    0.757832    0.309070    0.000000
    50  C     c     0.784463    0.652367    0.979351    0.000000
    51  C     c     0.134859    0.001609    0.567359    0.000000
    52  C     c     0.449341    0.221952    0.230520    0.000000
    53  C     c     0.398789    0.353125    0.068817    0.000000
    54  C     c     0.340680    0.047910    0.256938    0.000000
    55  C     c     0.598360    0.221420    0.346801    0.000000
    56  C     c     0.391290    0.170979    0.786624    0.000000
    57  C     c     0.608191    0.415168    0.804461    0.000000
    58  C     c     0.706980    0.925380    0.564054    0.000000
    59  C     c     0.070548    0.762920    0.012518    0.000000
    60  C     c     0.578954    0.471411    0.218930    0.000000
    61  C     c     0.558470    0.760514    0.348427    0.000000
    62  C     c     0.998683    0.176398    0.572622    0.000000
    63  C     c     0.602798    0.596610    0.896230    0.000000
    64  C     c     0.545763    0.785699    0.804831    0.000000
--------------------------------------------------------------------------------

  Final Cartesian lattice vectors (Angstroms) :

        7.644098    0.000000    0.000000
        0.303387    7.367354    0.000000
       -0.243040    0.206993    7.554356


  Final cell parameters and derivatives :

--------------------------------------------------------------------------------
       a            7.644098 Angstrom     dE/de1(xx)    -0.005811 eV/strain
       b            7.373598 Angstrom     dE/de2(yy)     0.000000 eV/strain
       c            7.561098 Angstrom     dE/de3(zz)     0.000000 eV/strain
       alpha       88.508400 Degrees      dE/de4(yz)     0.000000 eV/strain
       beta        91.842000 Degrees      dE/de5(xz)     0.000000 eV/strain
       gamma       87.641900 Degrees      dE/de6(xy)     0.000000 eV/strain
--------------------------------------------------------------------------------

  Primitive cell volume =           425.436952 Angs**3

  Density of cell =      3.000156 g/cm**3

  Non-primitive cell volume =           425.436952 Angs**3


  Final internal derivatives :

--------------------------------------------------------------------------------
   No.  Atomic          a             b             c           Radius
        Label          (eV)          (eV)          (eV)        (eV/Angs)
--------------------------------------------------------------------------------
      1 C     c       0.000000      0.000000      0.000000      0.000000
      2 C     c       0.000288      0.002404      0.001546      0.000000
      3 C     c      -0.000007      0.001065     -0.002936      0.000000
      4 C     c       0.001769      0.000870     -0.000304      0.000000
      5 C     c       0.000269      0.001931      0.006923      0.000000
      6 C     c       0.001169     -0.000560      0.002122      0.000000
      7 C     c      -0.002075      0.000149     -0.000621      0.000000
      8 C     c       0.001058      0.000256     -0.001948      0.000000
      9 C     c       0.000952      0.000292      0.000926      0.000000
     10 C     c       0.000139      0.000215      0.000217      0.000000
     11 C     c       0.000013      0.001391      0.002301      0.000000
     12 C     c      -0.001004      0.001130      0.001938      0.000000
     13 C     c       0.000781      0.000377     -0.002344      0.000000
     14 C     c       0.003754     -0.001298     -0.001297      0.000000
     15 C     c       0.000015      0.001569      0.001011      0.000000
     16 C     c      -0.000150     -0.000286      0.000637      0.000000
     17 C     c      -0.002056      0.001827      0.000637      0.000000
     18 C     c      -0.001384      0.000824     -0.000312      0.000000
     19 C     c      -0.002032      0.000513      0.000152      0.000000
     20 C     c      -0.001408     -0.002901     -0.000955      0.000000
     21 C     c      -0.000644      0.000673     -0.000710      0.000000
     22 C     c       0.001900      0.000800     -0.000799      0.000000
     23 C     c       0.001341     -0.001370     -0.000653      0.000000
     24 C     c       0.000176      0.001706     -0.001108      0.000000
     25 C     c      -0.000634     -0.002304     -0.002570      0.000000
     26 C     c       0.000340     -0.001025     -0.000769      0.000000
     27 C     c      -0.000756      0.000050     -0.000040      0.000000
     28 C     c      -0.000833     -0.000648      0.000940      0.000000
     29 C     c       0.001563      0.000381     -0.006097      0.000000
     30 C     c      -0.000492      0.001162     -0.000616      0.000000
     31 C     c       0.002376      0.000919      0.000584      0.000000
     32 C     c       0.001760      0.002166      0.000779      0.000000
     33 C     c       0.001413     -0.001253      0.002714      0.000000
     34 C     c      -0.000990     -0.002301     -0.000169      0.000000
     35 C     c      -0.000903     -0.002469     -0.001100      0.000000
     36 C     c      -0.000589      0.000423     -0.000466      0.000000
     37 C     c      -0.000222     -0.001397      0.000442      0.000000
     38 C     c       0.001131     -0.000453     -0.000024      0.000000
     39 C     c       0.000618     -0.001829      0.000159      0.000000
     40 C     c      -0.000375     -0.001947     -0.002393      0.000000
     41 C     c       0.000140      0.003087     -0.001026      0.000000
     42 C     c       0.000851     -0.000750      0.001640      0.000000
     43 C     c       0.002574     -0.000052     -0.000092      0.000000
     44 C     c       0.001546     -0.000038     -0.000292      0.000000
     45 C     c      -0.001944     -0.003048      0.000457      0.000000
     46 C     c       0.000506      0.000985     -0.001285      0.000000
     47 C     c      -0.001389     -0.002199     -0.001067      0.000000
     48 C     c       0.000892     -0.002368      0.002416      0.000000
     49 C     c       0.000832      0.000148     -0.000036      0.000000
     50 C     c      -0.001422     -0.001595      0.000212      0.000000
     51 C     c      -0.000637      0.000626     -0.001145      0.000000
     52 C     c       0.000168     -0.000501     -0.000136      0.000000
     53 C     c      -0.002425      0.001713      0.000596      0.000000
     54 C     c       0.000580     -0.000689      0.002174      0.000000
     55 C     c      -0.000821     -0.002427     -0.001039      0.000000
     56 C     c      -0.000026      0.000686      0.003579      0.000000
     57 C     c      -0.001341     -0.000160      0.000559      0.000000
     58 C     c      -0.002872      0.000149      0.001064      0.000000
     59 C     c      -0.000196      0.002102      0.000085      0.000000
     60 C     c       0.001313     -0.000577     -0.002010      0.000000
     61 C     c      -0.000307     -0.002027     -0.001339      0.000000
     62 C     c      -0.001160      0.001102     -0.002370      0.000000
     63 C     c      -0.001245      0.001163      0.000398      0.000000
     64 C     c       0.000702      0.001298     -0.000139      0.000000
--------------------------------------------------------------------------------
  Maximum abs         0.003754      0.003087      0.006923      0.000000
--------------------------------------------------------------------------------



  Elastic Constant Matrix: (Units=GPa)

-------------------------------------------------------------------------------
  Indices      1         2         3         4         5         6    
-------------------------------------------------------------------------------
       1    496.4082  175.7165  205.6928   18.5222  -56.0867   51.0645
       2    175.7165  491.2228  119.0781    1.2117   11.7336   75.3573
       3    205.6928  119.0781  626.5840    2.5813  -50.1194  -12.4236
       4     18.5222    1.2117    2.5813  163.4281   21.8095  -14.4917
       5    -56.0867   11.7336  -50.1194   21.8095  189.4555   11.0612
       6     51.0645   75.3573  -12.4236  -14.4917   11.0612  171.4263
-------------------------------------------------------------------------------


  Elastic Compliance Matrix: (Units=1/GPa)

-------------------------------------------------------------------------------
  Indices      1         2         3         4         5         6    
-------------------------------------------------------------------------------
       1    0.002732 -0.000725 -0.000709 -0.000450  0.000755 -0.000633
       2   -0.000725  0.002509 -0.000288  0.000044 -0.000400 -0.000878
       3   -0.000709 -0.000288  0.001915  0.000056  0.000281  0.000464
       4   -0.000450  0.000044  0.000056  0.006351 -0.000894  0.000713
       5    0.000755 -0.000400  0.000281 -0.000894  0.005731 -0.000474
       6   -0.000633 -0.000878  0.000464  0.000713 -0.000474  0.006533
-------------------------------------------------------------------------------

  Mechanical properties :

-------------------------------------------------------------------------------
  Convention :                    Reuss         Voigt         Hill
-------------------------------------------------------------------------------
  Bulk  Modulus (GPa)     =     269.49845     290.57665     280.03755
  Shear Modulus (GPa)     =     164.17571     179.11050     171.64310
-------------------------------------------------------------------------------
  Velocity S-wave (km/s)  =       7.39746       7.72660       7.56382
  Velocity P-wave (km/s)  =      12.75897      13.28361      13.02393
-------------------------------------------------------------------------------
  Compressibility (1/GPa) =    0.00371060
-------------------------------------------------------------------------------
  Stress axis :                     x             y             z
-------------------------------------------------------------------------------
  Youngs Moduli (GPa)     =     365.98118     398.52301     522.16487
-------------------------------------------------------------------------------
  Poissons Ratio (x)      =                     0.28900       0.37047
  Poissons Ratio (y)      =       0.26541                     0.15060
  Poissons Ratio (z)      =       0.25966       0.11494
-------------------------------------------------------------------------------


  Piezoelectric Strain Matrix: (Units=C/m**2)

-------------------------------------------------------------------------------
  Indices      1         2         3         4         5         6    
-------------------------------------------------------------------------------
       x    -0.00000  -0.00000  -0.00000  -0.00000  -0.00000  -0.00000
       y    -0.00000  -0.00000  -0.00000  -0.00000  -0.00000  -0.00000
       z    -0.00000  -0.00000  -0.00000  -0.00000  -0.00000  -0.00000
-------------------------------------------------------------------------------


  Piezoelectric Stress Matrix: (Units=10**-11 C/N)

-------------------------------------------------------------------------------
  Indices      1         2         3         4         5         6    
-------------------------------------------------------------------------------
       x     0.00000   0.00000   0.00000   0.00000   0.00000   0.00000
       y     0.00000   0.00000   0.00000   0.00000   0.00000   0.00000
       z     0.00000   0.00000   0.00000   0.00000   0.00000   0.00000
-------------------------------------------------------------------------------


  Static dielectric constant tensor : 

-------------------------------------------------------------------------------
              x         y         z
-------------------------------------------------------------------------------
       x     1.00000   0.00000   0.00000
       y     0.00000   1.00000   0.00000
       z     0.00000   0.00000   1.00000
--------------------------------------------------------------------------------

  Static refractive indices : 

-------------------------------------------------------------------------------
    1 =    1.00000      2 =    1.00000      3 =    1.00000
-------------------------------------------------------------------------------


  Phonon Calculation : 

  Number of k points for this configuration =        1

--------------------------------------------------------------------------------
  K point      1 =   0.000000  0.000000  0.000000  Weight =    1.000
--------------------------------------------------------------------------------

  Frequencies (cm-1) [NB: Negative implies an imaginary mode]:

   -0.00   -0.00    0.00  199.64  212.92  239.45  258.18  272.09  278.97
  285.52  294.80  308.37  311.45  328.69  336.72  341.08  344.15  354.25
  365.92  371.08  378.74  388.68  395.25  402.33  415.91  418.10  433.16
  437.37  449.17  450.51  457.45  470.44  475.82  487.65  499.83  501.11
  509.18  510.14  523.03  526.15  529.91  538.87  540.28  555.02  559.46
  564.15  569.83  583.67  590.06  600.07  606.61  609.00  617.93  622.62
  626.12  632.52  637.47  651.58  656.12  665.05  667.52  674.68  681.05
  694.18  699.17  707.60  710.15  715.27  725.20  730.29  732.62  749.00
  751.17  758.33  763.96  772.81  774.82  783.31  791.67  797.19  804.53
  811.09  816.82  827.75  831.47  837.71  846.75  852.89  859.73  876.68
  885.49  890.44  896.31  904.68  909.09  911.18  914.00  937.68  944.49
  952.33  963.67  973.91  988.96  999.03 1003.09 1006.19 1010.12 1025.60
 1033.83 1040.79 1042.43 1045.77 1051.15 1066.88 1067.81 1076.30 1080.50
 1090.41 1105.48 1112.55 1121.52 1134.21 1140.31 1147.13 1152.78 1160.97
 1163.97 1170.28 1179.08 1184.24 1190.12 1200.77 1203.06 1206.78 1225.82
 1227.51 1241.68 1249.42 1256.13 1259.57 1263.55 1272.48 1289.61 1292.70
 1298.53 1306.55 1312.30 1313.17 1321.26 1325.93 1334.51 1344.91 1355.93
 1371.37 1378.64 1387.25 1389.66 1405.45 1414.01 1424.57 1429.57 1431.90
 1447.23 1463.48 1467.54 1480.29 1488.99 1497.66 1506.81 1522.49 1531.97
 1537.58 1565.52 1593.32 1624.29 1651.72 1666.70 1674.06 1694.32 1704.27
 1725.20 1738.57 1811.60 1824.40 1919.99 2001.46 2046.63 2142.65 2199.97
 2731.01 2812.65 2917.43


--------------------------------------------------------------------------------
  Phonon properties (per mole of unit cells): Temperature =      0.000 K
--------------------------------------------------------------------------------
  Zero point energy            =       11.569924 eV
--------------------------------------------------------------------------------

  Phonon density of states : 

--------------------------------------------------------------------------------
 Frequency (cm-1) Density of States                                             
--------------------------------------------------------------------------------
    0.00000 |*******                                                       0.005
   45.58479 |                                                              0.000
   91.16958 |                                                              0.000
  136.75437 |                                                              0.000
  182.33916 |***************                                               0.011
  227.92395 |**********************                                        0.016
  273.50874 |*************************************                         0.026
  319.09353 |*************************************                         0.026
  364.67831 |*********************************************                 0.032
  410.26310 |*********************************************                 0.032
  455.84789 |*********************************************                 0.032
  501.43268 |****************************************************          0.037
  547.01747 |*********************************************                 0.032
  592.60226 |************************************************************  0.042
  638.18705 |*********************************************                 0.032
  683.77184 |*********************************************                 0.032
  729.35663 |************************************************************  0.042
  774.94142 |*********************************************                 0.032
  820.52621 |*********************************************                 0.032
  866.11100 |****************************************************          0.037
  911.69579 |******************************                                0.021
  957.28058 |******************************                                0.021
 1002.86536 |************************************************************  0.042
 1048.45015 |*********************************************                 0.032
 1094.03494 |******************************                                0.021
 1139.61973 |************************************************************  0.042
 1185.20452 |*********************************************                 0.032
 1230.78931 |*********************************************                 0.032
 1276.37410 |****************************************************          0.037
 1321.95889 |******************************                                0.021
 1367.54368 |*************************************                         0.026
 1413.12847 |*************************************                         0.026
 1458.71326 |*************************************                         0.026
 1504.29805 |******************************                                0.021
 1549.88284 |***************                                               0.011
 1595.46763 |*******                                                       0.005
 1641.05241 |**********************                                        0.016
 1686.63720 |**********************                                        0.016
 1732.22199 |*******                                                       0.005
 1777.80678 |*******                                                       0.005
 1823.39157 |*******                                                       0.005
 1868.97636 |                                                              0.000
 1914.56115 |*******                                                       0.005
 1960.14594 |*******                                                       0.005
 2005.73073 |*******                                                       0.005
 2051.31552 |                                                              0.000
 2096.90031 |                                                              0.000
 2142.48510 |*******                                                       0.005
 2188.06989 |*******                                                       0.005
 2233.65468 |                                                              0.000
 2279.23946 |                                                              0.000
 2324.82425 |                                                              0.000
 2370.40904 |                                                              0.000
 2415.99383 |                                                              0.000
 2461.57862 |                                                              0.000
 2507.16341 |                                                              0.000
 2552.74820 |                                                              0.000
 2598.33299 |                                                              0.000
 2643.91778 |                                                              0.000
 2689.50257 |*******                                                       0.005
 2735.08736 |                                                              0.000
 2780.67215 |*******                                                       0.005
 2826.25694 |                                                              0.000
 2871.84173 |*******                                                       0.005
--------------------------------------------------------------------------------



  Time to end of optimisation =       1.8061 seconds


  Peak dynamic memory used =       2.65 MB 


  Timing analysis for GULP :

--------------------------------------------------------------------------------
  Task / Subroutine                                          Time (Seconds)
--------------------------------------------------------------------------------
  Calculation of real space energy and derivatives                0.0002
  Calculation of Brenner energy and derivatives                   1.6889
  Calculation of phonons                                          0.3180
  Calculation of matrix inversion                                 0.0001
--------------------------------------------------------------------------------
  Total CPU time                                                  1.8062
--------------------------------------------------------------------------------


  CIF file written as opti.cif


  Job Finished at 14:08.31 31st July       2020                               

