********************************************************************************
*                       GENERAL UTILITY LATTICE PROGRAM                        *
*                                 Julian Gale                                  *
*                       Curtin Institute for Computation                       *
*                    School of Molecular and Life Sciences                     *
*                    Curtin University, Western Australia                      *
********************************************************************************
* Version = 5.2.0 * Last modified =  17th December 2019                        *
********************************************************************************
*  optimise     - perform optimisation run                                     *
*  conp         - constant pressure calculation                                *
*  isotropic    - only isotropic cell expansion to be allowed                  *
*  property     - calculate properties for final geometry                      *
*  phonon       - calculate phonons for final geometry                         *
*  lbfgs        - use limited memory BFGS update                               *
********************************************************************************
* ASE calculation                                                              *
********************************************************************************


  Job Started  at 16:20.03 12th August     2020                               

  Number of CPUs =     1


  Total number of configurations input =      1

********************************************************************************
*  Input for Configuration =   1                                               *
********************************************************************************

  Formula = C64                                                         

  Number of irreducible atoms/shells =      64


  Total number atoms/shells =      64

  Dimensionality = 3               :  Bulk   



  Cartesian lattice vectors (Angstroms) :

        7.504400    0.000000    0.000000
        0.000000    7.504400    0.000000
        0.000000    0.000000    7.504400

  Cell parameters (Angstroms/Degrees):

  a =       7.5044    alpha =  90.0000
  b =       7.5044    beta  =  90.0000
  c =       7.5044    gamma =  90.0000

  Initial cell volume =         422.617936 Angs**3

  Temperature of configuration =   0.00     K 

  Pressure of configuration =         0.000 GPa 

  Fractional coordinates of asymmetric unit :

--------------------------------------------------------------------------------
   No.  Atomic       x           y          z         Charge      Occupancy
        Label      (Frac)      (Frac)     (Frac)        (e)         (Frac)  
--------------------------------------------------------------------------------
      1 C     c    0.082860    0.546420    0.420470     0.00000    1.000000    
      2 C     c    0.300470 *  0.098480 *  0.158050 *   0.00000    1.000000    
      3 C     c    0.135430 *  0.397320 *  0.321400 *   0.00000    1.000000    
      4 C     c    0.905490 *  0.925920 *  0.500530 *   0.00000    1.000000    
      5 C     c    0.496470 *  0.888330 *  0.033250 *   0.00000    1.000000    
      6 C     c    0.816780 *  0.441270 *  0.290230 *   0.00000    1.000000    
      7 C     c    0.945770 *  0.607820 *  0.761780 *   0.00000    1.000000    
      8 C     c    0.840320 *  0.519590 *  0.629820 *   0.00000    1.000000    
      9 C     c    0.152890 *  0.348160 *  0.688790 *   0.00000    1.000000    
     10 C     c    0.417360 *  0.733360 *  0.168120 *   0.00000    1.000000    
     11 C     c    0.912950 *  0.222370 *  0.789680 *   0.00000    1.000000    
     12 C     c    0.594660 *  0.873970 *  0.593910 *   0.00000    1.000000    
     13 C     c    0.450710 *  0.212820 *  0.666970 *   0.00000    1.000000    
     14 C     c    0.222920 *  0.959920 *  0.855440 *   0.00000    1.000000    
     15 C     c    0.544790 *  0.575690 *  0.447490 *   0.00000    1.000000    
     16 C     c    0.011880 *  0.923390 *  0.168010 *   0.00000    1.000000    
     17 C     c    0.170450 *  0.793090 *  0.921890 *   0.00000    1.000000    
     18 C     c    0.324040 *  0.692350 *  0.651930 *   0.00000    1.000000    
     19 C     c    0.762670 *  0.347470 *  0.713160 *   0.00000    1.000000    
     20 C     c    0.064920 *  0.226020 *  0.316700 *   0.00000    1.000000    
     21 C     c    0.939020 *  0.137230 *  0.452960 *   0.00000    1.000000    
     22 C     c    0.882990 *  0.573160 *  0.439880 *   0.00000    1.000000    
     23 C     c    0.483380 *  0.799280 *  0.721410 *   0.00000    1.000000    
     24 C     c    0.800220 *  0.235140 *  0.302270 *   0.00000    1.000000    
     25 C     c    0.720270 *  0.151940 *  0.111960 *   0.00000    1.000000    
     26 C     c    0.529470 *  0.570940 *  0.123160 *   0.00000    1.000000    
     27 C     c    0.623950 *  0.264260 *  0.582370 *   0.00000    1.000000    
     28 C     c    0.661500 *  0.958000 *  0.159510 *   0.00000    1.000000    
     29 C     c    0.510700 *  0.875200 *  0.296820 *   0.00000    1.000000    
     30 C     c    0.368170 *  0.034740 *  0.972170 *   0.00000    1.000000    
     31 C     c    0.838010 *  0.084970 *  0.940300 *   0.00000    1.000000    
     32 C     c    0.887020 *  0.741300 *  0.878490 *   0.00000    1.000000    
     33 C     c    0.329920 *  0.369220 *  0.625000 *   0.00000    1.000000    
     34 C     c    0.234910 *  0.665930 *  0.237210 *   0.00000    1.000000    
     35 C     c    0.097820 *  0.482080 *  0.828230 *   0.00000    1.000000    
     36 C     c    0.357300 *  0.059430 *  0.561620 *   0.00000    1.000000    
     37 C     c    0.205560 *  0.709380 *  0.458790 *   0.00000    1.000000    
     38 C     c    0.577830 *  0.283650 *  0.000200 *   0.00000    1.000000    
     39 C     c    0.096250 *  0.111340 *  0.154850 *   0.00000    1.000000    
     40 C     c    0.783300 *  0.916310 *  0.845700 *   0.00000    1.000000    
     41 C     c    0.406360 *  0.526900 *  0.561540 *   0.00000    1.000000    
     42 C     c    0.094690 *  0.865200 *  0.548260 *   0.00000    1.000000    
     43 C     c    0.072230 *  0.412820 *  0.017680 *   0.00000    1.000000    
     44 C     c    0.238240 *  0.455410 *  0.151960 *   0.00000    1.000000    
     45 C     c    0.203740 *  0.654420 *  0.807420 *   0.00000    1.000000    
     46 C     c    0.918830 *  0.504530 *  0.126220 *   0.00000    1.000000    
     47 C     c    0.828050 *  0.833420 *  0.193820 *   0.00000    1.000000    
     48 C     c    0.017560 *  0.212950 *  0.992570 *   0.00000    1.000000    
     49 C     c    0.812710 *  0.769570 *  0.389370 *   0.00000    1.000000    
     50 C     c    0.835940 *  0.673740 *  0.062610 *   0.00000    1.000000    
     51 C     c    0.185060 *  0.009430 *  0.659170 *   0.00000    1.000000    
     52 C     c    0.457630 *  0.216810 *  0.274090 *   0.00000    1.000000    
     53 C     c    0.431410 *  0.378370 *  0.134190 *   0.00000    1.000000    
     54 C     c    0.387750 *  0.028060 *  0.356610 *   0.00000    1.000000    
     55 C     c    0.620120 *  0.243470 *  0.401380 *   0.00000    1.000000    
     56 C     c    0.467290 *  0.174430 *  0.869580 *   0.00000    1.000000    
     57 C     c    0.671060 *  0.425450 *  0.885090 *   0.00000    1.000000    
     58 C     c    0.760010 *  0.942560 *  0.648250 *   0.00000    1.000000    
     59 C     c    0.130720 *  0.786950 *  0.105540 *   0.00000    1.000000    
     60 C     c    0.614630 *  0.488110 *  0.292770 *   0.00000    1.000000    
     61 C     c    0.609350 *  0.770250 *  0.432430 *   0.00000    1.000000    
     62 C     c    0.047380 *  0.170810 *  0.640760 *   0.00000    1.000000    
     63 C     c    0.654620 *  0.612400 *  0.969500 *   0.00000    1.000000    
     64 C     c    0.597000 *  0.795710 *  0.888070 *   0.00000    1.000000    
--------------------------------------------------------------------------------


  Constraints : 

--------------------------------------------------------------------------------
  Constraint no.      Unconstrained     Constrained    Coefficient    Offset
                         Variable         Variable
--------------------------------------------------------------------------------
           1              Strain 1        Strain 2       1.00000      0.0000
           2              Strain 1        Strain 3       1.00000      0.0000
--------------------------------------------------------------------------------

  Brillouin zone sampling points :

--------------------------------------------------------------------------------
  Point number          x          y          z            Weight
--------------------------------------------------------------------------------
        1           0.000000   0.000000   0.000000     1.00000000
--------------------------------------------------------------------------------


********************************************************************************
*  General input information                                                   *
********************************************************************************

  Species output for all configurations : 

--------------------------------------------------------------------------------
  Species    Type    Atomic    Atomic    Charge       Radii (Angs)     Library
                     Number     Mass       (e)     Cova   Ionic  VDW   Symbol
--------------------------------------------------------------------------------
    C        Core        6      12.01   0.000000   0.770  0.000  1.530          
--------------------------------------------------------------------------------


  Lattice summation method               =    Ewald          (3-D)
                                         =    Parry          (2-D)
                                         =    Saunders et al (1-D)
  Accuracy factor for lattice sums       =   12.000


  Analytic derivatives to be used

  Time limit = Infinity

  Maximum range for interatomic potentials =    100000.000000 Angstroms

  Brenner et al 2002 potential to be used with explicit splines for P


********************************************************************************
*  Output for configuration   1                                                *
********************************************************************************


  Components of energy : 

--------------------------------------------------------------------------------
  Interatomic potentials     =           0.00000000 eV    
  Brenner potentials         =        -425.31620544 eV    
  Monopole - monopole (real) =           0.00000000 eV    
  Monopole - monopole (recip)=           0.00000000 eV    
  Monopole - monopole (total)=           0.00000000 eV    
--------------------------------------------------------------------------------
  Total lattice energy       =        -425.31620544 eV    
--------------------------------------------------------------------------------
  Total lattice energy       =          -41036.5123 kJ/(mole unit cells)
--------------------------------------------------------------------------------


  Number of variables =      190

  Maximum number of calculations  =          2000
  Maximum Hessian update interval =            10
  Maximum step size               =   1.000000000
  Maximum parameter tolerance     =   0.000010000
  Maximum function  tolerance     =   0.000010000
  Maximum gradient  tolerance     =   0.001000000
  Maximum gradient  component     =   0.010000000

  Maximum LM gradient tolerance   =   0.900000000
  Symmetry not applied to optimisation

  Cell parameters to be optimised using strains

  Limited Memory BFGS to be used of order   10

  BFGS hessian update to be used

  Lower half triangular hessian to be used

  Start of bulk optimisation :

  Cycle:      0 Energy:      -425.316205  Gnorm:      0.001098  CPU:    0.013
  Cycle:      1 Energy:      -425.316207  Gnorm:      0.000621  CPU:    0.020
  Cycle:      2 Energy:      -425.316208  Gnorm:      0.000330  CPU:    0.035
  Cycle:      3 Energy:      -425.316208  Gnorm:      0.000185  CPU:    0.046
  Cycle:      4 Energy:      -425.316208  Gnorm:      0.000190  CPU:    0.052


  **** Optimisation achieved ****


  Final energy =    -425.31620806 eV
  Final Gnorm  =       0.00010262

  Components of energy : 

--------------------------------------------------------------------------------
  Interatomic potentials     =           0.00000000 eV    
  Brenner potentials         =        -425.31620806 eV    
  Monopole - monopole (real) =           0.00000000 eV    
  Monopole - monopole (recip)=           0.00000000 eV    
  Monopole - monopole (total)=           0.00000000 eV    
--------------------------------------------------------------------------------
  Total lattice energy       =        -425.31620806 eV    
--------------------------------------------------------------------------------
  Total lattice energy       =          -41036.5125 kJ/(mole unit cells)
--------------------------------------------------------------------------------

  Final fractional coordinates of atoms :

--------------------------------------------------------------------------------
   No.  Atomic        x           y          z          Radius
        Label       (Frac)      (Frac)     (Frac)       (Angs) 
--------------------------------------------------------------------------------
     1  C     c     0.082860    0.546420    0.420470    0.000000
     2  C     c     0.300467    0.098482    0.158050    0.000000
     3  C     c     0.135430    0.397321    0.321400    0.000000
     4  C     c     0.905491    0.925922    0.500527    0.000000
     5  C     c     0.496474    0.888328    0.033248    0.000000
     6  C     c     0.816779    0.441268    0.290228    0.000000
     7  C     c     0.945768    0.607823    0.761782    0.000000
     8  C     c     0.840317    0.519590    0.629819    0.000000
     9  C     c     0.152891    0.348158    0.688789    0.000000
    10  C     c     0.417356    0.733356    0.168122    0.000000
    11  C     c     0.912950    0.222373    0.789679    0.000000
    12  C     c     0.594658    0.873968    0.593907    0.000000
    13  C     c     0.450707    0.212819    0.666974    0.000000
    14  C     c     0.222920    0.959917    0.855437    0.000000
    15  C     c     0.544789    0.575685    0.447487    0.000000
    16  C     c     0.011882    0.923394    0.168010    0.000000
    17  C     c     0.170450    0.793093    0.921891    0.000000
    18  C     c     0.324039    0.692354    0.651929    0.000000
    19  C     c     0.762672    0.347466    0.713158    0.000000
    20  C     c     0.064923    0.226016    0.316700    0.000000
    21  C     c     0.939018    0.137231    0.452956    0.000000
    22  C     c     0.882992    0.573160    0.439878    0.000000
    23  C     c     0.483382    0.799281    0.721412    0.000000
    24  C     c     0.800218    0.235138    0.302273    0.000000
    25  C     c     0.720272    0.151943    0.111961    0.000000
    26  C     c     0.529470    0.570943    0.123164    0.000000
    27  C     c     0.623949    0.264259    0.582371    0.000000
    28  C     c     0.661498    0.958002    0.159507    0.000000
    29  C     c     0.510698    0.875201    0.296823    0.000000
    30  C     c     0.368167    0.034739    0.972169    0.000000
    31  C     c     0.838014    0.084972    0.940301    0.000000
    32  C     c     0.887020    0.741297    0.878487    0.000000
    33  C     c     0.329921    0.369221    0.624999    0.000000
    34  C     c     0.234914    0.665933    0.237204    0.000000
    35  C     c     0.097821    0.482084    0.828234    0.000000
    36  C     c     0.357298    0.059427    0.561621    0.000000
    37  C     c     0.205561    0.709376    0.458791    0.000000
    38  C     c     0.577829    0.283649    0.000199    0.000000
    39  C     c     0.096249    0.111338    0.154848    0.000000
    40  C     c     0.783300    0.916311    0.845699    0.000000
    41  C     c     0.406364    0.526901    0.561537    0.000000
    42  C     c     0.094691    0.865204    0.548261    0.000000
    43  C     c     0.072228    0.412817    0.017681    0.000000
    44  C     c     0.238245    0.455411    0.151961    0.000000
    45  C     c     0.203743    0.654417    0.807420    0.000000
    46  C     c     0.918831    0.504528    0.126223    0.000000
    47  C     c     0.828049    0.833417    0.193824    0.000000
    48  C     c     0.017557    0.212946    0.992570    0.000000
    49  C     c     0.812712    0.769568    0.389371    0.000000
    50  C     c     0.835940    0.673741    0.062605    0.000000
    51  C     c     0.185060    0.009431    0.659172    0.000000
    52  C     c     0.457630    0.216812    0.274087    0.000000
    53  C     c     0.431406    0.378368    0.134189    0.000000
    54  C     c     0.387749    0.028058    0.356609    0.000000
    55  C     c     0.620124    0.243473    0.401382    0.000000
    56  C     c     0.467294    0.174435    0.869579    0.000000
    57  C     c     0.671058    0.425453    0.885089    0.000000
    58  C     c     0.760010    0.942562    0.648254    0.000000
    59  C     c     0.130719    0.786950    0.105543    0.000000
    60  C     c     0.614628    0.488112    0.292772    0.000000
    61  C     c     0.609352    0.770251    0.432432    0.000000
    62  C     c     0.047381    0.170810    0.640761    0.000000
    63  C     c     0.654625    0.612395    0.969498    0.000000
    64  C     c     0.596996    0.795712    0.888072    0.000000
--------------------------------------------------------------------------------

  Final Cartesian lattice vectors (Angstroms) :

        7.504400    0.000000    0.000000
        0.000000    7.504400    0.000000
        0.000000    0.000000    7.504400


  Final cell parameters and derivatives :

--------------------------------------------------------------------------------
       a            7.504400 Angstrom     dE/de1(xx)    -0.005655 eV/strain
       b            7.504400 Angstrom     dE/de2(yy)     0.000000 eV/strain
       c            7.504400 Angstrom     dE/de3(zz)     0.000000 eV/strain
       alpha       90.000000 Degrees      dE/de4(yz)     0.000000 eV/strain
       beta        90.000000 Degrees      dE/de5(xz)     0.000000 eV/strain
       gamma       90.000000 Degrees      dE/de6(xy)     0.000000 eV/strain
--------------------------------------------------------------------------------

  Primitive cell volume =           422.618002 Angs**3

  Density of cell =      3.020167 g/cm**3

  Non-primitive cell volume =           422.618002 Angs**3


  Final internal derivatives :

--------------------------------------------------------------------------------
   No.  Atomic          a             b             c           Radius
        Label          (eV)          (eV)          (eV)        (eV/Angs)
--------------------------------------------------------------------------------
      1 C     c       0.000000      0.000000      0.000000      0.000000
      2 C     c       0.001140     -0.001033      0.001375      0.000000
      3 C     c       0.000710      0.002651      0.000389      0.000000
      4 C     c      -0.000518     -0.001177      0.000126      0.000000
      5 C     c       0.002565     -0.000924      0.002981      0.000000
      6 C     c       0.003016      0.000203     -0.000204      0.000000
      7 C     c       0.000351      0.000840      0.002184      0.000000
      8 C     c       0.000240     -0.001026      0.000196      0.000000
      9 C     c      -0.000405     -0.002715     -0.000807      0.000000
     10 C     c      -0.001381     -0.000809     -0.001242      0.000000
     11 C     c      -0.001561     -0.000542     -0.002208      0.000000
     12 C     c      -0.001092     -0.000212      0.000629      0.000000
     13 C     c      -0.000255      0.000703      0.000299      0.000000
     14 C     c      -0.000154      0.001337      0.000504      0.000000
     15 C     c      -0.001607     -0.000745      0.000814      0.000000
     16 C     c       0.002004      0.000319     -0.001163      0.000000
     17 C     c       0.001112      0.000539     -0.001399      0.000000
     18 C     c      -0.002211     -0.000234     -0.001756      0.000000
     19 C     c       0.000617      0.001336      0.000436      0.000000
     20 C     c      -0.003591      0.000003      0.002223      0.000000
     21 C     c      -0.001961      0.001585     -0.001741      0.000000
     22 C     c       0.000549      0.001305      0.001236      0.000000
     23 C     c       0.000485     -0.000213     -0.001159      0.000000
     24 C     c       0.002599     -0.000467      0.001877      0.000000
     25 C     c      -0.001763     -0.001974     -0.000663      0.000000
     26 C     c      -0.001269      0.000656      0.000774      0.000000
     27 C     c       0.000233      0.001499     -0.002033      0.000000
     28 C     c      -0.000050     -0.001658      0.000433      0.000000
     29 C     c      -0.000227      0.000922     -0.006030      0.000000
     30 C     c      -0.001526     -0.001191      0.001784      0.000000
     31 C     c       0.000194      0.000708      0.001471      0.000000
     32 C     c       0.001294     -0.001832      0.001240      0.000000
     33 C     c      -0.000362     -0.000645      0.000600      0.000000
     34 C     c       0.002312     -0.001330     -0.000682      0.000000
     35 C     c       0.000761      0.002531     -0.000482      0.000000
     36 C     c       0.000437      0.000793     -0.001309      0.000000
     37 C     c       0.000532     -0.000074      0.000137      0.000000
     38 C     c      -0.000734     -0.002667     -0.000820      0.000000
     39 C     c       0.001495      0.000197      0.000963      0.000000
     40 C     c       0.000743     -0.000759     -0.000932      0.000000
     41 C     c       0.000260     -0.001083     -0.000606      0.000000
     42 C     c      -0.001781     -0.000236      0.000813      0.000000
     43 C     c       0.000176      0.001475     -0.001755      0.000000
     44 C     c      -0.000983      0.002529      0.000460      0.000000
     45 C     c      -0.001582     -0.000082     -0.000663      0.000000
     46 C     c      -0.000867      0.000019     -0.000115      0.000000
     47 C     c       0.000235     -0.000425      0.001031      0.000000
     48 C     c      -0.000171      0.000571      0.001806      0.000000
     49 C     c      -0.001009      0.001579     -0.000820      0.000000
     50 C     c      -0.002767      0.001774     -0.001105      0.000000
     51 C     c       0.001160     -0.000690     -0.001054      0.000000
     52 C     c       0.000257      0.000379     -0.000001      0.000000
     53 C     c      -0.000083     -0.000387      0.001830      0.000000
     54 C     c       0.001751     -0.000545      0.000923      0.000000
     55 C     c       0.001787     -0.001895     -0.000776      0.000000
     56 C     c       0.000894      0.000874     -0.000650      0.000000
     57 C     c       0.000624      0.000756      0.003309      0.000000
     58 C     c       0.000327     -0.002159      0.001322      0.000000
     59 C     c       0.000745     -0.001094      0.000232      0.000000
     60 C     c      -0.002129      0.001508      0.000635      0.000000
     61 C     c      -0.000005      0.001779     -0.000906      0.000000
     62 C     c      -0.000454     -0.000222     -0.000030      0.000000
     63 C     c       0.002071      0.000210     -0.001042      0.000000
     64 C     c      -0.000869      0.002297     -0.000745      0.000000
--------------------------------------------------------------------------------
  Maximum abs         0.003591      0.002715      0.006030      0.000000
--------------------------------------------------------------------------------



  Elastic Constant Matrix: (Units=GPa)

-------------------------------------------------------------------------------
  Indices      1         2         3         4         5         6    
-------------------------------------------------------------------------------
       1    466.3331  191.8769  243.9107   40.4548  -21.9615   52.5366
       2    191.8769  533.9717  140.8167    6.5389    1.0143   63.8641
       3    243.9107  140.8167  646.3550   13.1841  -25.4171  -20.1350
       4     40.4548    6.5389   13.1841  160.3433    8.9698   17.3451
       5    -21.9615    1.0143  -25.4171    8.9698  209.6696   19.1975
       6     52.5366   63.8641  -20.1350   17.3451   19.1975  172.9162
-------------------------------------------------------------------------------


  Elastic Compliance Matrix: (Units=1/GPa)

-------------------------------------------------------------------------------
  Indices      1         2         3         4         5         6    
-------------------------------------------------------------------------------
       1    0.003146 -0.000763 -0.001020 -0.000613  0.000306 -0.000765
       2   -0.000763  0.002285 -0.000237  0.000193 -0.000068 -0.000652
       3   -0.001020 -0.000237  0.002005  0.000031  0.000079  0.000619
       4   -0.000613  0.000193  0.000031  0.006451 -0.000292 -0.000496
       5    0.000306 -0.000068  0.000079 -0.000292  0.004876 -0.000571
       6   -0.000765 -0.000652  0.000619 -0.000496 -0.000571  0.006441
-------------------------------------------------------------------------------

  Mechanical properties :

-------------------------------------------------------------------------------
  Convention :                    Reuss         Voigt         Hill
-------------------------------------------------------------------------------
  Bulk  Modulus (GPa)     =     294.43032     311.09650     302.76341
  Shear Modulus (GPa)     =     164.60034     179.92285     172.26159
-------------------------------------------------------------------------------
  Velocity S-wave (km/s)  =       7.38244       7.71841       7.55229
  Velocity P-wave (km/s)  =      13.04436      13.50697      13.27768
-------------------------------------------------------------------------------
  Compressibility (1/GPa) =    0.00339639
-------------------------------------------------------------------------------
  Stress axis :                     x             y             z
-------------------------------------------------------------------------------
  Youngs Moduli (GPa)     =     317.89865     437.62826     498.63029
-------------------------------------------------------------------------------
  Poissons Ratio (x)      =                     0.33386       0.50868
  Poissons Ratio (y)      =       0.24252                     0.11811
  Poissons Ratio (z)      =       0.32431       0.10366
-------------------------------------------------------------------------------


  Piezoelectric Strain Matrix: (Units=C/m**2)

-------------------------------------------------------------------------------
  Indices      1         2         3         4         5         6    
-------------------------------------------------------------------------------
       x    -0.00000  -0.00000  -0.00000  -0.00000  -0.00000  -0.00000
       y    -0.00000  -0.00000  -0.00000  -0.00000  -0.00000  -0.00000
       z    -0.00000  -0.00000  -0.00000  -0.00000  -0.00000  -0.00000
-------------------------------------------------------------------------------


  Piezoelectric Stress Matrix: (Units=10**-11 C/N)

-------------------------------------------------------------------------------
  Indices      1         2         3         4         5         6    
-------------------------------------------------------------------------------
       x     0.00000   0.00000   0.00000   0.00000   0.00000   0.00000
       y     0.00000   0.00000   0.00000   0.00000   0.00000   0.00000
       z     0.00000   0.00000   0.00000   0.00000   0.00000   0.00000
-------------------------------------------------------------------------------


  Static dielectric constant tensor : 

-------------------------------------------------------------------------------
              x         y         z
-------------------------------------------------------------------------------
       x     1.00000   0.00000   0.00000
       y     0.00000   1.00000   0.00000
       z     0.00000   0.00000   1.00000
--------------------------------------------------------------------------------

  Static refractive indices : 

-------------------------------------------------------------------------------
    1 =    1.00000      2 =    1.00000      3 =    1.00000
-------------------------------------------------------------------------------


  Phonon Calculation : 

  Number of k points for this configuration =        1

--------------------------------------------------------------------------------
  K point      1 =   0.000000  0.000000  0.000000  Weight =    1.000
--------------------------------------------------------------------------------

  Frequencies (cm-1) [NB: Negative implies an imaginary mode]:

   -0.00   -0.00    0.00  193.19  217.85  246.83  265.26  274.16  282.73
  289.44  298.31  315.51  322.02  330.84  337.64  342.24  360.62  369.94
  378.11  378.97  385.71  391.34  400.56  407.81  415.24  424.72  433.25
  443.08  448.82  454.46  463.30  472.77  477.31  492.87  497.46  497.70
  512.00  513.07  522.54  531.45  536.92  542.67  552.04  564.08  574.09
  576.37  586.18  594.06  595.86  602.89  611.44  623.86  628.19  629.43
  635.57  641.93  643.75  659.97  662.54  667.47  671.25  679.25  688.02
  701.30  703.50  718.70  723.97  732.68  735.78  740.35  745.92  748.47
  764.31  766.87  774.01  782.18  787.59  799.27  806.84  807.37  809.64
  815.67  820.28  825.57  834.02  846.81  856.32  858.21  871.99  877.59
  889.65  896.18  909.52  915.08  917.63  925.61  936.01  937.96  955.68
  960.21  968.76  975.77  984.15  992.76 1002.83 1011.90 1013.98 1023.39
 1024.99 1030.44 1054.21 1066.76 1069.53 1083.30 1084.60 1093.32 1099.79
 1110.47 1118.21 1119.31 1127.91 1138.35 1140.82 1150.97 1167.33 1173.21
 1181.67 1189.77 1200.04 1206.06 1216.71 1218.27 1221.24 1231.44 1236.29
 1250.67 1258.15 1264.17 1269.65 1271.57 1280.82 1285.44 1290.05 1294.76
 1302.75 1306.22 1311.54 1316.84 1326.66 1335.54 1350.65 1354.07 1361.63
 1368.20 1374.95 1382.03 1386.43 1400.19 1407.88 1434.68 1445.16 1456.76
 1472.94 1496.94 1514.19 1516.73 1527.70 1533.61 1552.94 1554.27 1573.11
 1614.28 1621.38 1662.82 1676.02 1684.01 1691.72 1709.52 1721.77 1729.43
 1850.76 1905.87 1918.95 1945.39 2117.87 2145.70 2206.21 2435.16 2651.21
 2774.85 2919.01 2996.22


--------------------------------------------------------------------------------
  Phonon properties (per mole of unit cells): Temperature =      0.000 K
--------------------------------------------------------------------------------
  Zero point energy            =       11.815293 eV
--------------------------------------------------------------------------------

  Phonon density of states : 

--------------------------------------------------------------------------------
 Frequency (cm-1) Density of States                                             
--------------------------------------------------------------------------------
    0.00000 |******                                                        0.005
   46.81589 |                                                              0.000
   93.63178 |                                                              0.000
  140.44768 |                                                              0.000
  187.26357 |*************                                                 0.011
  234.07946 |********************                                          0.016
  280.89535 |*********************************                             0.026
  327.71124 |*********************************                             0.026
  374.52714 |**********************************************                0.037
  421.34303 |****************************************                      0.032
  468.15892 |**********************************************                0.037
  514.97481 |*********************************                             0.026
  561.79070 |**********************************************                0.037
  608.60660 |**********************************************                0.037
  655.42249 |**********************************************                0.037
  702.23838 |*****************************************************         0.042
  749.05427 |*********************************                             0.026
  795.87017 |*****************************************************         0.042
  842.68606 |*********************************                             0.026
  889.50195 |**********************************************                0.037
  936.31784 |*********************************                             0.026
  983.13373 |**********************************************                0.037
 1029.94963 |**************************                                    0.021
 1076.76552 |**********************************************                0.037
 1123.58141 |*********************************                             0.026
 1170.39730 |****************************************                      0.032
 1217.21319 |****************************************                      0.032
 1264.02909 |************************************************************  0.047
 1310.84498 |****************************************                      0.032
 1357.66087 |****************************************                      0.032
 1404.47676 |********************                                          0.016
 1451.29265 |********************                                          0.016
 1498.10855 |**************************                                    0.021
 1544.92444 |********************                                          0.016
 1591.74033 |*************                                                 0.011
 1638.55622 |********************                                          0.016
 1685.37211 |**************************                                    0.021
 1732.18801 |                                                              0.000
 1779.00390 |                                                              0.000
 1825.81979 |******                                                        0.005
 1872.63568 |*************                                                 0.011
 1919.45157 |******                                                        0.005
 1966.26747 |                                                              0.000
 2013.08336 |                                                              0.000
 2059.89925 |                                                              0.000
 2106.71514 |*************                                                 0.011
 2153.53103 |                                                              0.000
 2200.34693 |******                                                        0.005
 2247.16282 |                                                              0.000
 2293.97871 |                                                              0.000
 2340.79460 |                                                              0.000
 2387.61050 |                                                              0.000
 2434.42639 |******                                                        0.005
 2481.24228 |                                                              0.000
 2528.05817 |                                                              0.000
 2574.87406 |                                                              0.000
 2621.68996 |******                                                        0.005
 2668.50585 |                                                              0.000
 2715.32174 |                                                              0.000
 2762.13763 |******                                                        0.005
 2808.95352 |                                                              0.000
 2855.76942 |                                                              0.000
 2902.58531 |******                                                        0.005
 2949.40120 |******                                                        0.005
--------------------------------------------------------------------------------



  Time to end of optimisation =       0.4242 seconds


  Peak dynamic memory used =       2.65 MB 


  Timing analysis for GULP :

--------------------------------------------------------------------------------
  Task / Subroutine                                          Time (Seconds)
--------------------------------------------------------------------------------
  Calculation of Brenner energy and derivatives                   0.4033
  Calculation of phonons                                          0.1159
--------------------------------------------------------------------------------
  Total CPU time                                                  0.4242
--------------------------------------------------------------------------------


  CIF file written as opti.cif


  Job Finished at 16:20.03 12th August     2020                               

