********************************************************************************
*                       GENERAL UTILITY LATTICE PROGRAM                        *
*                                 Julian Gale                                  *
*                       Curtin Institute for Computation                       *
*                    School of Molecular and Life Sciences                     *
*                    Curtin University, Western Australia                      *
********************************************************************************
* Version = 5.2.0 * Last modified =  17th December 2019                        *
********************************************************************************
*  single       - perform a single point run                                   *
*  md           - perform molecular dynamics run                               *
*  conv         - constant volume calculation                                  *
********************************************************************************
* ASE calculation                                                              *
********************************************************************************


  Job Started  at 23:31.08 10th August     2020                               

  Number of CPUs =     1


  Total number of configurations input =      1

********************************************************************************
*  Input for Configuration =   1                                               *
********************************************************************************

  Formula = C64                                                         

  Number of irreducible atoms/shells =      64


  Total number atoms/shells =      64

  Dimensionality = 3               :  Bulk   



  Cartesian lattice vectors (Angstroms) :

        7.569600    0.000000    0.000000
        0.000000    7.569600    0.000000
        0.000000    0.000000    7.569600

  Cell parameters (Angstroms/Degrees):

  a =       7.5696    alpha =  90.0000
  b =       7.5696    beta  =  90.0000
  c =       7.5696    gamma =  90.0000

  Initial cell volume =         433.729331 Angs**3

  Temperature of configuration =   50.0     K 

  Pressure of configuration =         0.000 GPa 

  Fractional coordinates of asymmetric unit :

--------------------------------------------------------------------------------
   No.  Atomic       x           y          z         Charge      Occupancy
        Label      (Frac)      (Frac)     (Frac)        (e)         (Frac)  
--------------------------------------------------------------------------------
      1 C     c    0.027880 *  0.588410 *  0.365130 *   0.00000    1.000000    
      2 C     c    0.268010 *  0.100450 *  0.108470 *   0.00000    1.000000    
      3 C     c    0.104330 *  0.438990 *  0.269070 *   0.00000    1.000000    
      4 C     c    0.880380 *  0.966840 *  0.452510 *   0.00000    1.000000    
      5 C     c    0.479920 *  0.919870 *  0.988000 *   0.00000    1.000000    
      6 C     c    0.790320 *  0.446740 *  0.218600 *   0.00000    1.000000    
      7 C     c    0.924770 *  0.638750 *  0.715330 *   0.00000    1.000000    
      8 C     c    0.809580 *  0.559800 *  0.587630 *   0.00000    1.000000    
      9 C     c    0.131330 *  0.381090 *  0.635900 *   0.00000    1.000000    
     10 C     c    0.408160 *  0.766420 *  0.116970 *   0.00000    1.000000    
     11 C     c    0.868590 *  0.256460 *  0.728520 *   0.00000    1.000000    
     12 C     c    0.573420 *  0.901730 *  0.557920 *   0.00000    1.000000    
     13 C     c    0.422110 *  0.243760 *  0.626960 *   0.00000    1.000000    
     14 C     c    0.200450 *  0.983690 *  0.798190 *   0.00000    1.000000    
     15 C     c    0.525610 *  0.610090 *  0.406070 *   0.00000    1.000000    
     16 C     c    0.992470 *  0.938320 *  0.123240 *   0.00000    1.000000    
     17 C     c    0.135880 *  0.821100 *  0.858570 *   0.00000    1.000000    
     18 C     c    0.350220 *  0.691580 *  0.663390 *   0.00000    1.000000    
     19 C     c    0.728020 *  0.393770 *  0.675930 *   0.00000    1.000000    
     20 C     c    0.051750 *  0.258060 *  0.270690 *   0.00000    1.000000    
     21 C     c    0.939280 *  0.172140 *  0.420400 *   0.00000    1.000000    
     22 C     c    0.845570 *  0.617890 *  0.411900 *   0.00000    1.000000    
     23 C     c    0.482400 *  0.819830 *  0.690690 *   0.00000    1.000000    
     24 C     c    0.797560 *  0.295750 *  0.325840 *   0.00000    1.000000    
     25 C     c    0.677340 *  0.167790 *  0.014050 *   0.00000    1.000000    
     26 C     c    0.523900 *  0.606240 *  0.087510 *   0.00000    1.000000    
     27 C     c    0.599640 *  0.290260 *  0.563680 *   0.00000    1.000000    
     28 C     c    0.638570 *  0.994870 *  0.114160 *   0.00000    1.000000    
     29 C     c    0.484560 *  0.917630 *  0.250510 *   0.00000    1.000000    
     30 C     c    0.341130 *  0.058080 *  0.920080 *   0.00000    1.000000    
     31 C     c    0.822760 *  0.125480 *  0.880680 *   0.00000    1.000000    
     32 C     c    0.872810 *  0.769570 *  0.837190 *   0.00000    1.000000    
     33 C     c    0.305540 *  0.398740 *  0.572930 *   0.00000    1.000000    
     34 C     c    0.230680 *  0.687950 *  0.123890 *   0.00000    1.000000    
     35 C     c    0.070520 *  0.507420 *  0.779000 *   0.00000    1.000000    
     36 C     c    0.325640 *  0.101530 *  0.507960 *   0.00000    1.000000    
     37 C     c    0.124340 *  0.742190 *  0.424770 *   0.00000    1.000000    
     38 C     c    0.544240 *  0.316930 *  0.952810 *   0.00000    1.000000    
     39 C     c    0.071210 *  0.129840 *  0.116210 *   0.00000    1.000000    
     40 C     c    0.777140 *  0.947480 *  0.798620 *   0.00000    1.000000    
     41 C     c    0.393430 *  0.560770 *  0.532950 *   0.00000    1.000000    
     42 C     c    0.068840 *  0.897290 *  0.499230 *   0.00000    1.000000    
     43 C     c    0.998870 *  0.418660 *  0.951820 *   0.00000    1.000000    
     44 C     c    0.242400 *  0.501470 *  0.156720 *   0.00000    1.000000    
     45 C     c    0.196400 *  0.671240 *  0.768010 *   0.00000    1.000000    
     46 C     c    0.894750 *  0.515410 *  0.076750 *   0.00000    1.000000    
     47 C     c    0.803960 *  0.864270 *  0.153900 *   0.00000    1.000000    
     48 C     c    0.992850 *  0.225490 *  0.957660 *   0.00000    1.000000    
     49 C     c    0.778720 *  0.807280 *  0.348180 *   0.00000    1.000000    
     50 C     c    0.826570 *  0.700170 *  0.023480 *   0.00000    1.000000    
     51 C     c    0.158050 *  0.042710 *  0.608050 *   0.00000    1.000000    
     52 C     c    0.478350 *  0.262460 *  0.271000 *   0.00000    1.000000    
     53 C     c    0.437640 *  0.400470 *  0.120260 *   0.00000    1.000000    
     54 C     c    0.369700 *  0.086430 *  0.295190 *   0.00000    1.000000    
     55 C     c    0.625510 *  0.266600 *  0.386580 *   0.00000    1.000000    
     56 C     c    0.422940 *  0.213290 *  0.828330 *   0.00000    1.000000    
     57 C     c    0.640190 *  0.460720 *  0.845460 *   0.00000    1.000000    
     58 C     c    0.740160 *  0.970420 *  0.603130 *   0.00000    1.000000    
     59 C     c    0.102600 *  0.802420 *  0.044360 *   0.00000    1.000000    
     60 C     c    0.620700 *  0.536360 *  0.253640 *   0.00000    1.000000    
     61 C     c    0.577090 *  0.810840 *  0.389700 *   0.00000    1.000000    
     62 C     c    0.024500 *  0.213260 *  0.606430 *   0.00000    1.000000    
     63 C     c    0.644240 *  0.644020 *  0.931870 *   0.00000    1.000000    
     64 C     c    0.594220 *  0.827740 *  0.852400 *   0.00000    1.000000    
--------------------------------------------------------------------------------



********************************************************************************
*  General input information                                                   *
********************************************************************************

  Species output for all configurations : 

--------------------------------------------------------------------------------
  Species    Type    Atomic    Atomic    Charge       Radii (Angs)     Library
                     Number     Mass       (e)     Cova   Ionic  VDW   Symbol
--------------------------------------------------------------------------------
    C        Core        6      12.01   0.000000   0.770  0.000  1.530          
--------------------------------------------------------------------------------


  Lattice summation method               =    Ewald          (3-D)
                                         =    Parry          (2-D)
                                         =    Saunders et al (1-D)
  Accuracy factor for lattice sums       =   12.000


  Analytic derivatives to be used

  Time limit = Infinity

  Maximum range for interatomic potentials =    100000.000000 Angstroms

  Brenner et al 2002 potential to be used with explicit splines for P


********************************************************************************
*  Output for configuration   1                                                *
********************************************************************************


  Components of energy : 

--------------------------------------------------------------------------------
  Interatomic potentials     =           0.00000000 eV    
  Brenner potentials         =        -428.01528162 eV    
  Monopole - monopole (real) =           0.00000000 eV    
  Monopole - monopole (recip)=           0.00000000 eV    
  Monopole - monopole (total)=           0.00000000 eV    
--------------------------------------------------------------------------------
  Total lattice energy       =        -428.01528162 eV    
--------------------------------------------------------------------------------
  Total lattice energy       =          -41296.9319 kJ/(mole unit cells)
--------------------------------------------------------------------------------

  Equations of motion will be integrated using the leapfrog Verlet algorithm.

********************************************************************************
*  Molecular Dynamics                                                          *
********************************************************************************

  Canonical ensemble (NVT) to be used

  Friction for temperature bath =           0.100000
  No. of mobile ions        =                 64

  No. of degrees of freedom =                189

  Time step                 =           0.000100 ps
  Equilibration time        =           5.000000 ps
  Production time           =           0.000000 ps
  Scaling time              =           5.000000 ps
  Scaling frequency         =           0.000100 ps
  Sampling frequency        =           0.005000 ps
  Write frequency           =           0.002000 ps
  TD-Force start time       =           0.000000 ps
  TD-Field start time       =           0.000000 ps



  Molecular dynamics equilibration :

  ** Time :            0.00500 ps :
     Properties:                   Instantaneous       Averaged
       Kinetic energy    (eV) =       0.403530          0.403530
       Potential energy  (eV) =    -427.749825       -427.749825
       Total energy      (eV) =    -427.346295       -427.346295
       Temperature       (K)  =      49.553097         49.553097
       Pressure         (GPa) =       0.083560          0.083560
  ** Time :            0.01000 ps :
     Properties:                   Instantaneous       Averaged
       Kinetic energy    (eV) =       0.406792          0.405161
       Potential energy  (eV) =    -427.544608       -427.647217
       Total energy      (eV) =    -427.137816       -427.242056
       Temperature       (K)  =      49.953634         49.753366
       Pressure         (GPa) =      -0.440735         -0.178588
  ** Time :            0.01500 ps :
     Properties:                   Instantaneous       Averaged
       Kinetic energy    (eV) =       0.405856          0.405393
       Potential energy  (eV) =    -427.472245       -427.588893
       Total energy      (eV) =    -427.066388       -427.183500
       Temperature       (K)  =      49.838765         49.781832
       Pressure         (GPa) =      -0.789738         -0.382304
  ** Time :            0.02000 ps :
     Properties:                   Instantaneous       Averaged
       Kinetic energy    (eV) =       0.407340          0.405880
       Potential energy  (eV) =    -427.390695       -427.539343
       Total energy      (eV) =    -426.983355       -427.133464
       Temperature       (K)  =      50.020959         49.841614
       Pressure         (GPa) =      -0.936124         -0.520759
  ** Time :            0.02500 ps :
     Properties:                   Instantaneous       Averaged
       Kinetic energy    (eV) =       0.409926          0.406689
       Potential energy  (eV) =    -427.416800       -427.514835
       Total energy      (eV) =    -427.006874       -427.108146
       Temperature       (K)  =      50.338551         49.941001
       Pressure         (GPa) =      -0.239586         -0.464525
  ** Time :            0.03000 ps :
     Properties:                   Instantaneous       Averaged
       Kinetic energy    (eV) =       0.410790          0.407372
       Potential energy  (eV) =    -427.731134       -427.550885
       Total energy      (eV) =    -427.320344       -427.143512
       Temperature       (K)  =      50.444546         50.024925
       Pressure         (GPa) =      -0.000516         -0.387190
  ** Time :            0.03500 ps :
     Properties:                   Instantaneous       Averaged
       Kinetic energy    (eV) =       0.408796          0.407576
       Potential energy  (eV) =    -428.023735       -427.618435
       Total energy      (eV) =    -427.614939       -427.210859
       Temperature       (K)  =      50.199710         50.049895
       Pressure         (GPa) =       0.638366         -0.240682
  ** Time :            0.04000 ps :
     Properties:                   Instantaneous       Averaged
       Kinetic energy    (eV) =       0.407276          0.407538
       Potential energy  (eV) =    -428.102737       -427.678972
       Total energy      (eV) =    -427.695461       -427.271434
       Temperature       (K)  =      50.013035         50.045287
       Pressure         (GPa) =       0.613888         -0.133861
  ** Time :            0.04500 ps :
     Properties:                   Instantaneous       Averaged
       Kinetic energy    (eV) =       0.407987          0.407588
       Potential energy  (eV) =    -428.135357       -427.729682
       Total energy      (eV) =    -427.727370       -427.322094
       Temperature       (K)  =      50.100398         50.051411
       Pressure         (GPa) =       0.328446         -0.082493
  ** Time :            0.05000 ps :
     Properties:                   Instantaneous       Averaged
       Kinetic energy    (eV) =       0.407310          0.407560
       Potential energy  (eV) =    -428.209970       -427.777711
       Total energy      (eV) =    -427.802660       -427.370150
       Temperature       (K)  =      50.017308         50.048000
       Pressure         (GPa) =       0.870577          0.012814
  ** Time :            0.05500 ps :
     Properties:                   Instantaneous       Averaged
       Kinetic energy    (eV) =       0.407086          0.407517
       Potential energy  (eV) =    -428.209425       -427.816957
       Total energy      (eV) =    -427.802339       -427.409440
       Temperature       (K)  =      49.989815         50.042711
       Pressure         (GPa) =       0.637953          0.069644
  ** Time :            0.06000 ps :
     Properties:                   Instantaneous       Averaged
       Kinetic energy    (eV) =       0.406363          0.407421
       Potential energy  (eV) =    -428.174032       -427.846714
       Total energy      (eV) =    -427.767670       -427.439293
       Temperature       (K)  =      49.900918         50.030895
       Pressure         (GPa) =       0.624362          0.115871
  ** Time :            0.06500 ps :
     Properties:                   Instantaneous       Averaged
       Kinetic energy    (eV) =       0.406843          0.407377
       Potential energy  (eV) =    -428.092057       -427.865586
       Total energy      (eV) =    -427.685214       -427.458210
       Temperature       (K)  =      49.959959         50.025438
       Pressure         (GPa) =       0.927180          0.178279
  ** Time :            0.07000 ps :
     Properties:                   Instantaneous       Averaged
       Kinetic energy    (eV) =       0.406650          0.407325
       Potential energy  (eV) =    -428.072459       -427.880363
       Total energy      (eV) =    -427.665809       -427.473038
       Temperature       (K)  =      49.936207         50.019064
       Pressure         (GPa) =       0.758079          0.219694
  ** Time :            0.07500 ps :
     Properties:                   Instantaneous       Averaged
       Kinetic energy    (eV) =       0.406844          0.407293
       Potential energy  (eV) =    -428.027200       -427.890152
       Total energy      (eV) =    -427.620357       -427.482859
       Temperature       (K)  =      49.959988         50.015126
       Pressure         (GPa) =       0.710337          0.252403
  ** Time :            0.08000 ps :
     Properties:                   Instantaneous       Averaged
       Kinetic energy    (eV) =       0.406963          0.407272
       Potential energy  (eV) =    -427.989963       -427.896390
       Total energy      (eV) =    -427.583000       -427.489118
       Temperature       (K)  =      49.974650         50.012596
       Pressure         (GPa) =       0.677934          0.278999
  ** Time :            0.08500 ps :
     Properties:                   Instantaneous       Averaged
       Kinetic energy    (eV) =       0.407217          0.407269
       Potential energy  (eV) =    -427.986485       -427.901690
       Total energy      (eV) =    -427.579269       -427.494421
       Temperature       (K)  =      50.005807         50.012197
       Pressure         (GPa) =       0.182516          0.273323
  ** Time :            0.09000 ps :
     Properties:                   Instantaneous       Averaged
       Kinetic energy    (eV) =       0.406572          0.407230
       Potential energy  (eV) =    -427.961403       -427.905007
       Total energy      (eV) =    -427.554831       -427.497777
       Temperature       (K)  =      49.926644         50.007444
       Pressure         (GPa) =       0.242637          0.271619
  ** Time :            0.09500 ps :
     Properties:                   Instantaneous       Averaged
       Kinetic energy    (eV) =       0.407215          0.407229
       Potential energy  (eV) =    -427.914138       -427.905488
       Total energy      (eV) =    -427.506922       -427.498259
       Temperature       (K)  =      50.005619         50.007348
       Pressure         (GPa) =       0.641209          0.291071
  ** Time :            0.10000 ps :
     Properties:                   Instantaneous       Averaged
       Kinetic energy    (eV) =       0.407693          0.407252
       Potential energy  (eV) =    -427.957091       -427.908068
       Total energy      (eV) =    -427.549399       -427.500816
       Temperature       (K)  =      50.064260         50.010193
       Pressure         (GPa) =       0.020581          0.277546
  ** Time :            0.10500 ps :
     Properties:                   Instantaneous       Averaged
       Kinetic energy    (eV) =       0.407004          0.407241
       Potential energy  (eV) =    -427.982292       -427.911602
       Total energy      (eV) =    -427.575288       -427.504362
       Temperature       (K)  =      49.979731         50.008743
       Pressure         (GPa) =       0.918029          0.308045
  ** Time :            0.11000 ps :
     Properties:                   Instantaneous       Averaged
       Kinetic energy    (eV) =       0.407738          0.407263
       Potential energy  (eV) =    -427.977233       -427.914586
       Total energy      (eV) =    -427.569495       -427.507322
       Temperature       (K)  =      50.069872         50.011521
       Pressure         (GPa) =       1.464505          0.360612
  ** Time :            0.11500 ps :
     Properties:                   Instantaneous       Averaged
       Kinetic energy    (eV) =       0.407928          0.407292
       Potential energy  (eV) =    -428.074346       -427.921532
       Total energy      (eV) =    -427.666418       -427.514240
       Temperature       (K)  =      50.093143         50.015070
       Pressure         (GPa) =       1.168660          0.395744
  ** Time :            0.12000 ps :
     Properties:                   Instantaneous       Averaged
       Kinetic energy    (eV) =       0.407710          0.407310
       Potential energy  (eV) =    -428.134642       -427.930411
       Total energy      (eV) =    -427.726932       -427.523102
       Temperature       (K)  =      50.066367         50.017208
       Pressure         (GPa) =       0.868180          0.415429
  ** Time :            0.12500 ps :
     Properties:                   Instantaneous       Averaged
       Kinetic energy    (eV) =       0.406761          0.407288
       Potential energy  (eV) =    -428.143590       -427.938939
       Total energy      (eV) =    -427.736829       -427.531651
       Temperature       (K)  =      49.949815         50.014512
       Pressure         (GPa) =       1.040934          0.440449
  ** Time :            0.13000 ps :
     Properties:                   Instantaneous       Averaged
       Kinetic energy    (eV) =       0.406875          0.407272
       Potential energy  (eV) =    -428.089739       -427.944739
       Total energy      (eV) =    -427.682863       -427.537467
       Temperature       (K)  =      49.963867         50.012564
       Pressure         (GPa) =       1.090048          0.465434
  ** Time :            0.13500 ps :
     Properties:                   Instantaneous       Averaged
       Kinetic energy    (eV) =       0.407371          0.407275
       Potential energy  (eV) =    -428.091015       -427.950156
       Total energy      (eV) =    -427.683643       -427.542881
       Temperature       (K)  =      50.024798         50.013017
       Pressure         (GPa) =       0.445447          0.464694
  ** Time :            0.14000 ps :
     Properties:                   Instantaneous       Averaged
       Kinetic energy    (eV) =       0.407408          0.407280
       Potential energy  (eV) =    -428.128759       -427.956535
       Total energy      (eV) =    -427.721350       -427.549255
       Temperature       (K)  =      50.029346         50.013600
       Pressure         (GPa) =       0.391857          0.462092
  ** Time :            0.14500 ps :
     Properties:                   Instantaneous       Averaged
       Kinetic energy    (eV) =       0.405786          0.407229
       Potential energy  (eV) =    -428.071029       -427.960483
       Total energy      (eV) =    -427.665243       -427.553254
       Temperature       (K)  =      49.830090         50.007272
       Pressure         (GPa) =       0.528761          0.464391
  ** Time :            0.15000 ps :
     Properties:                   Instantaneous       Averaged
       Kinetic energy    (eV) =       0.407189          0.407227
       Potential energy  (eV) =    -427.983400       -427.961247
       Total energy      (eV) =    -427.576211       -427.554019
       Temperature       (K)  =      50.002391         50.007110
       Pressure         (GPa) =       0.433008          0.463345
  ** Time :            0.15500 ps :
     Properties:                   Instantaneous       Averaged
       Kinetic energy    (eV) =       0.406925          0.407218
       Potential energy  (eV) =    -427.980982       -427.961883
       Total energy      (eV) =    -427.574057       -427.554666
       Temperature       (K)  =      49.969991         50.005912
       Pressure         (GPa) =      -0.483190          0.432812
  ** Time :            0.16000 ps :
     Properties:                   Instantaneous       Averaged
       Kinetic energy    (eV) =       0.407397          0.407223
       Potential energy  (eV) =    -427.972868       -427.962227
       Total energy      (eV) =    -427.565471       -427.555004
       Temperature       (K)  =      50.027963         50.006601
       Pressure         (GPa) =      -0.361664          0.407984
  ** Time :            0.16500 ps :
     Properties:                   Instantaneous       Averaged
       Kinetic energy    (eV) =       0.407325          0.407226
       Potential energy  (eV) =    -428.002676       -427.963452
       Total energy      (eV) =    -427.595351       -427.556226
       Temperature       (K)  =      50.019156         50.006982
       Pressure         (GPa) =       0.337728          0.405855
  ** Time :            0.17000 ps :
     Properties:                   Instantaneous       Averaged
       Kinetic energy    (eV) =       0.407622          0.407238
       Potential energy  (eV) =    -428.077261       -427.966800
       Total energy      (eV) =    -427.669640       -427.559562
       Temperature       (K)  =      50.055516         50.008409
       Pressure         (GPa) =      -0.045515          0.392580
  ** Time :            0.17500 ps :
     Properties:                   Instantaneous       Averaged
       Kinetic energy    (eV) =       0.407086          0.407234
       Potential energy  (eV) =    -428.077834       -427.969972
       Total energy      (eV) =    -427.670749       -427.562739
       Temperature       (K)  =      49.989713         50.007875
       Pressure         (GPa) =       0.202108          0.387138
  ** Time :            0.18000 ps :
     Properties:                   Instantaneous       Averaged
       Kinetic energy    (eV) =       0.407548          0.407242
       Potential energy  (eV) =    -428.109248       -427.973841
       Total energy      (eV) =    -427.701700       -427.566599
       Temperature       (K)  =      50.046536         50.008949
       Pressure         (GPa) =       0.420482          0.388064
  ** Time :            0.18500 ps :
     Properties:                   Instantaneous       Averaged
       Kinetic energy    (eV) =       0.406674          0.407227
       Potential energy  (eV) =    -428.105270       -427.977393
       Total energy      (eV) =    -427.698597       -427.570166
       Temperature       (K)  =      49.939107         50.007061
       Pressure         (GPa) =       1.190115          0.409741
  ** Time :            0.19000 ps :
     Properties:                   Instantaneous       Averaged
       Kinetic energy    (eV) =       0.406440          0.407206
       Potential energy  (eV) =    -428.045944       -427.979197
       Total energy      (eV) =    -427.639504       -427.571991
       Temperature       (K)  =      49.910446         50.004519
       Pressure         (GPa) =       0.996857          0.425191
  ** Time :            0.19500 ps :
     Properties:                   Instantaneous       Averaged
       Kinetic energy    (eV) =       0.406598          0.407191
       Potential energy  (eV) =    -427.967225       -427.978890
       Total energy      (eV) =    -427.560627       -427.571699
       Temperature       (K)  =      49.929856         50.002604
       Pressure         (GPa) =       0.637461          0.430634
  ** Time :            0.20000 ps :
     Properties:                   Instantaneous       Averaged
       Kinetic energy    (eV) =       0.406986          0.407186
       Potential energy  (eV) =    -427.927646       -427.977609
       Total energy      (eV) =    -427.520660       -427.570423
       Temperature       (K)  =      49.977460         50.001976
       Pressure         (GPa) =       0.943895          0.443466
  ** Time :            0.20500 ps :
     Properties:                   Instantaneous       Averaged
       Kinetic energy    (eV) =       0.408132          0.407209
       Potential energy  (eV) =    -427.979016       -427.977643
       Total energy      (eV) =    -427.570884       -427.570435
       Temperature       (K)  =      50.118262         50.004812
       Pressure         (GPa) =       0.507664          0.445032
  ** Time :            0.21000 ps :
     Properties:                   Instantaneous       Averaged
       Kinetic energy    (eV) =       0.407234          0.407209
       Potential energy  (eV) =    -428.042239       -427.979181
       Total energy      (eV) =    -427.635005       -427.571972
       Temperature       (K)  =      50.007896         50.004886
       Pressure         (GPa) =       1.189410          0.462755
  ** Time :            0.21500 ps :
     Properties:                   Instantaneous       Averaged
       Kinetic energy    (eV) =       0.407708          0.407221
       Potential energy  (eV) =    -428.046839       -427.980755
       Total energy      (eV) =    -427.639131       -427.573534
       Temperature       (K)  =      50.066077         50.006309
       Pressure         (GPa) =       0.594573          0.465820
  ** Time :            0.22000 ps :
     Properties:                   Instantaneous       Averaged
       Kinetic energy    (eV) =       0.407786          0.407234
       Potential energy  (eV) =    -428.129166       -427.984128
       Total energy      (eV) =    -427.721380       -427.576894
       Temperature       (K)  =      50.075669         50.007885
       Pressure         (GPa) =       1.056376          0.479242
  ** Time :            0.22500 ps :
     Properties:                   Instantaneous       Averaged
       Kinetic energy    (eV) =       0.406782          0.407224
       Potential energy  (eV) =    -428.127346       -427.987310
       Total energy      (eV) =    -427.720564       -427.580087
       Temperature       (K)  =      49.952441         50.006653
       Pressure         (GPa) =       1.510302          0.502155
  ** Time :            0.23000 ps :
     Properties:                   Instantaneous       Averaged
       Kinetic energy    (eV) =       0.406218          0.407202
       Potential energy  (eV) =    -428.071900       -427.989149
       Total energy      (eV) =    -427.665682       -427.581948
       Temperature       (K)  =      49.883184         50.003969
       Pressure         (GPa) =       0.765757          0.507885
  ** Time :            0.23500 ps :
     Properties:                   Instantaneous       Averaged
       Kinetic energy    (eV) =       0.406746          0.407192
       Potential energy  (eV) =    -427.988639       -427.989138
       Total energy      (eV) =    -427.581893       -427.581946
       Temperature       (K)  =      49.947984         50.002778
       Pressure         (GPa) =       0.195292          0.501234
  ** Time :            0.24000 ps :
     Properties:                   Instantaneous       Averaged
       Kinetic energy    (eV) =       0.407266          0.407194
       Potential energy  (eV) =    -427.984857       -427.989049
       Total energy      (eV) =    -427.577591       -427.581856
       Temperature       (K)  =      50.011884         50.002967
       Pressure         (GPa) =       0.475331          0.500694
  ** Time :            0.24500 ps :
     Properties:                   Instantaneous       Averaged
       Kinetic energy    (eV) =       0.407531          0.407200
       Potential energy  (eV) =    -428.039603       -427.990081
       Total energy      (eV) =    -427.632072       -427.582880
       Temperature       (K)  =      50.044403         50.003813
       Pressure         (GPa) =       0.090149          0.492316
  ** Time :            0.25000 ps :
     Properties:                   Instantaneous       Averaged
       Kinetic energy    (eV) =       0.407487          0.407206
       Potential energy  (eV) =    -428.060147       -427.991482
       Total energy      (eV) =    -427.652661       -427.584276
       Temperature       (K)  =      50.038952         50.004516
       Pressure         (GPa) =       0.071214          0.483894
  ** Time :            0.25500 ps :
     Properties:                   Instantaneous       Averaged
       Kinetic energy    (eV) =       0.407339          0.407209
       Potential energy  (eV) =    -428.093217       -427.993477
       Total energy      (eV) =    -427.685878       -427.586268
       Temperature       (K)  =      50.020775         50.004834
       Pressure         (GPa) =       0.448480          0.483200
  ** Time :            0.26000 ps :
     Properties:                   Instantaneous       Averaged
       Kinetic energy    (eV) =       0.406668          0.407198
       Potential energy  (eV) =    -428.088111       -427.995297
       Total energy      (eV) =    -427.681443       -427.588099
       Temperature       (K)  =      49.938403         50.003557
       Pressure         (GPa) =       0.815797          0.489596
  ** Time :            0.26500 ps :
     Properties:                   Instantaneous       Averaged
       Kinetic energy    (eV) =       0.406679          0.407189
       Potential energy  (eV) =    -428.054083       -427.996406
       Total energy      (eV) =    -427.647404       -427.589218
       Temperature       (K)  =      49.939717         50.002352
       Pressure         (GPa) =       1.148025          0.502019
  ** Time :            0.27000 ps :
     Properties:                   Instantaneous       Averaged
       Kinetic energy    (eV) =       0.407086          0.407187
       Potential energy  (eV) =    -428.003831       -427.996544
       Total energy      (eV) =    -427.596745       -427.589357
       Temperature       (K)  =      49.989742         50.002119
       Pressure         (GPa) =       0.682114          0.505354
  ** Time :            0.27500 ps :
     Properties:                   Instantaneous       Averaged
       Kinetic energy    (eV) =       0.407414          0.407191
       Potential energy  (eV) =    -428.027579       -427.997108
       Total energy      (eV) =    -427.620165       -427.589917
       Temperature       (K)  =      50.030095         50.002628
       Pressure         (GPa) =       0.655131          0.508077
  ** Time :            0.28000 ps :
     Properties:                   Instantaneous       Averaged
       Kinetic energy    (eV) =       0.406837          0.407184
       Potential energy  (eV) =    -428.019730       -427.997512
       Total energy      (eV) =    -427.612893       -427.590327
       Temperature       (K)  =      49.959198         50.001852
       Pressure         (GPa) =       1.131929          0.519217
  ** Time :            0.28500 ps :
     Properties:                   Instantaneous       Averaged
       Kinetic energy    (eV) =       0.407118          0.407183
       Potential energy  (eV) =    -427.991441       -427.997405
       Total energy      (eV) =    -427.584323       -427.590222
       Temperature       (K)  =      49.993744         50.001710
       Pressure         (GPa) =       0.122829          0.512263
  ** Time :            0.29000 ps :
     Properties:                   Instantaneous       Averaged
       Kinetic energy    (eV) =       0.407999          0.407197
       Potential energy  (eV) =    -428.059328       -427.998473
       Total energy      (eV) =    -427.651329       -427.591276
       Temperature       (K)  =      50.101920         50.003438
       Pressure         (GPa) =       0.212722          0.507099
  ** Time :            0.29500 ps :
     Properties:                   Instantaneous       Averaged
       Kinetic energy    (eV) =       0.406922          0.407193
       Potential energy  (eV) =    -428.087607       -427.999984
       Total energy      (eV) =    -427.680685       -427.592791
       Temperature       (K)  =      49.969596         50.002864
       Pressure         (GPa) =       0.507265          0.507102
  ** Time :            0.30000 ps :
     Properties:                   Instantaneous       Averaged
       Kinetic energy    (eV) =       0.407147          0.407192
       Potential energy  (eV) =    -428.069673       -428.001145
       Total energy      (eV) =    -427.662526       -427.593953
       Temperature       (K)  =      49.997234         50.002770
       Pressure         (GPa) =       0.191059          0.501834
  ** Time :            0.30500 ps :
     Properties:                   Instantaneous       Averaged
       Kinetic energy    (eV) =       0.407109          0.407191
       Potential energy  (eV) =    -428.070619       -428.002284
       Total energy      (eV) =    -427.663510       -427.595094
       Temperature       (K)  =      49.992568         50.002603
       Pressure         (GPa) =       0.116345          0.495515
  ** Time :            0.31000 ps :
     Properties:                   Instantaneous       Averaged
       Kinetic energy    (eV) =       0.407632          0.407198
       Potential energy  (eV) =    -428.087652       -428.003661
       Total energy      (eV) =    -427.680021       -427.596463
       Temperature       (K)  =      50.056753         50.003476
       Pressure         (GPa) =       0.694352          0.498722
  ** Time :            0.31500 ps :
     Properties:                   Instantaneous       Averaged
       Kinetic energy    (eV) =       0.406667          0.407189
       Potential energy  (eV) =    -428.071359       -428.004736
       Total energy      (eV) =    -427.664691       -427.597546
       Temperature       (K)  =      49.938330         50.002442
       Pressure         (GPa) =      -0.113777          0.489000
  ** Time :            0.32000 ps :
     Properties:                   Instantaneous       Averaged
       Kinetic energy    (eV) =       0.406782          0.407183
       Potential energy  (eV) =    -428.041793       -428.005315
       Total energy      (eV) =    -427.635012       -427.598132
       Temperature       (K)  =      49.952367         50.001660
       Pressure         (GPa) =       0.123531          0.483289
  ** Time :            0.32500 ps :
     Properties:                   Instantaneous       Averaged
       Kinetic energy    (eV) =       0.406560          0.407173
       Potential energy  (eV) =    -427.999148       -428.005220
       Total energy      (eV) =    -427.592588       -427.598046
       Temperature       (K)  =      49.925183         50.000483
       Pressure         (GPa) =       0.101840          0.477421
  ** Time :            0.33000 ps :
     Properties:                   Instantaneous       Averaged
       Kinetic energy    (eV) =       0.407906          0.407184
       Potential energy  (eV) =    -427.991910       -428.005018
       Total energy      (eV) =    -427.584004       -427.597834
       Temperature       (K)  =      50.090505         50.001847
       Pressure         (GPa) =       0.471783          0.477335
  ** Time :            0.33500 ps :
     Properties:                   Instantaneous       Averaged
       Kinetic energy    (eV) =       0.407596          0.407191
       Potential energy  (eV) =    -428.074660       -428.006058
       Total energy      (eV) =    -427.667064       -427.598867
       Temperature       (K)  =      50.052333         50.002601
       Pressure         (GPa) =       1.018571          0.485413
  ** Time :            0.34000 ps :
     Properties:                   Instantaneous       Averaged
       Kinetic energy    (eV) =       0.407066          0.407189
       Potential energy  (eV) =    -428.106010       -428.007527
       Total energy      (eV) =    -427.698944       -427.600339
       Temperature       (K)  =      49.987352         50.002376
       Pressure         (GPa) =       0.703289          0.488617
  ** Time :            0.34500 ps :
     Properties:                   Instantaneous       Averaged
       Kinetic energy    (eV) =       0.406963          0.407185
       Potential energy  (eV) =    -428.073207       -428.008479
       Total energy      (eV) =    -427.666244       -427.601294
       Temperature       (K)  =      49.974650         50.001975
       Pressure         (GPa) =       1.256726          0.499749
  ** Time :            0.35000 ps :
     Properties:                   Instantaneous       Averaged
       Kinetic energy    (eV) =       0.407338          0.407188
       Potential energy  (eV) =    -428.083061       -428.009545
       Total energy      (eV) =    -427.675723       -427.602357
       Temperature       (K)  =      50.020683         50.002242
       Pressure         (GPa) =       1.816956          0.518567
  ** Time :            0.35500 ps :
     Properties:                   Instantaneous       Averaged
       Kinetic energy    (eV) =       0.406731          0.407181
       Potential energy  (eV) =    -428.072312       -428.010429
       Total energy      (eV) =    -427.665580       -427.603248
       Temperature       (K)  =      49.946208         50.001453
       Pressure         (GPa) =       1.629142          0.534209
  ** Time :            0.36000 ps :
     Properties:                   Instantaneous       Averaged
       Kinetic energy    (eV) =       0.406812          0.407176
       Potential energy  (eV) =    -428.047933       -428.010950
       Total energy      (eV) =    -427.641121       -427.603774
       Temperature       (K)  =      49.956113         50.000823
       Pressure         (GPa) =       1.265591          0.544367
  ** Time :            0.36500 ps :
     Properties:                   Instantaneous       Averaged
       Kinetic energy    (eV) =       0.406516          0.407167
       Potential energy  (eV) =    -427.986491       -428.010615
       Total energy      (eV) =    -427.579975       -427.603448
       Temperature       (K)  =      49.919735         49.999712
       Pressure         (GPa) =       1.262894          0.554210
  ** Time :            0.37000 ps :
     Properties:                   Instantaneous       Averaged
       Kinetic energy    (eV) =       0.406621          0.407160
       Potential energy  (eV) =    -427.954308       -428.009854
       Total energy      (eV) =    -427.547686       -427.602694
       Temperature       (K)  =      49.932686         49.998806
       Pressure         (GPa) =       0.469822          0.553069
  ** Time :            0.37500 ps :
     Properties:                   Instantaneous       Averaged
       Kinetic energy    (eV) =       0.407500          0.407164
       Potential energy  (eV) =    -427.932226       -428.008819
       Total energy      (eV) =    -427.524726       -427.601654
       Temperature       (K)  =      50.040642         49.999364
       Pressure         (GPa) =       0.121517          0.547315
  ** Time :            0.38000 ps :
     Properties:                   Instantaneous       Averaged
       Kinetic energy    (eV) =       0.407638          0.407170
       Potential energy  (eV) =    -427.993700       -428.008620
       Total energy      (eV) =    -427.586062       -427.601449
       Temperature       (K)  =      50.057534         50.000130
       Pressure         (GPa) =       0.214115          0.542931
  ** Time :            0.38500 ps :
     Properties:                   Instantaneous       Averaged
       Kinetic energy    (eV) =       0.407567          0.407176
       Potential energy  (eV) =    -428.062428       -428.009319
       Total energy      (eV) =    -427.654862       -427.602143
       Temperature       (K)  =      50.048764         50.000761
       Pressure         (GPa) =       0.506718          0.542461
  ** Time :            0.39000 ps :
     Properties:                   Instantaneous       Averaged
       Kinetic energy    (eV) =       0.406954          0.407173
       Potential energy  (eV) =    -428.067491       -428.010064
       Total energy      (eV) =    -427.660537       -427.602892
       Temperature       (K)  =      49.973510         50.000412
       Pressure         (GPa) =       0.602127          0.543226
  ** Time :            0.39500 ps :
     Properties:                   Instantaneous       Averaged
       Kinetic energy    (eV) =       0.407880          0.407182
       Potential energy  (eV) =    -428.097422       -428.011170
       Total energy      (eV) =    -427.689542       -427.603988
       Temperature       (K)  =      50.087225         50.001511
       Pressure         (GPa) =       0.151082          0.538262
  ** Time :            0.40000 ps :
     Properties:                   Instantaneous       Averaged
       Kinetic energy    (eV) =       0.407182          0.407182
       Potential energy  (eV) =    -428.136826       -428.012741
       Total energy      (eV) =    -427.729644       -427.605559
       Temperature       (K)  =      50.001601         50.001512
       Pressure         (GPa) =       0.445846          0.537107
  ** Time :            0.40500 ps :
     Properties:                   Instantaneous       Averaged
       Kinetic energy    (eV) =       0.406632          0.407175
       Potential energy  (eV) =    -428.120378       -428.014070
       Total energy      (eV) =    -427.713745       -427.606895
       Temperature       (K)  =      49.934035         50.000679
       Pressure         (GPa) =       0.892415          0.541493
  ** Time :            0.41000 ps :
     Properties:                   Instantaneous       Averaged
       Kinetic energy    (eV) =       0.406898          0.407172
       Potential energy  (eV) =    -428.062699       -428.014663
       Total energy      (eV) =    -427.655801       -427.607491
       Temperature       (K)  =      49.966712         50.000265
       Pressure         (GPa) =       0.285292          0.538369
  ** Time :            0.41500 ps :
     Properties:                   Instantaneous       Averaged
       Kinetic energy    (eV) =       0.407191          0.407172
       Potential energy  (eV) =    -428.081574       -428.015469
       Total energy      (eV) =    -427.674383       -427.608297
       Temperature       (K)  =      50.002692         50.000294
       Pressure         (GPa) =       0.680824          0.540085
  ** Time :            0.42000 ps :
     Properties:                   Instantaneous       Averaged
       Kinetic energy    (eV) =       0.407088          0.407171
       Potential energy  (eV) =    -428.072922       -428.016153
       Total energy      (eV) =    -427.665833       -427.608982
       Temperature       (K)  =      49.990027         50.000172
       Pressure         (GPa) =       1.044257          0.546087
  ** Time :            0.42500 ps :
     Properties:                   Instantaneous       Averaged
       Kinetic energy    (eV) =       0.406648          0.407165
       Potential energy  (eV) =    -428.048307       -428.016531
       Total energy      (eV) =    -427.641659       -427.609366
       Temperature       (K)  =      49.935941         49.999416
       Pressure         (GPa) =       0.701610          0.547917
  ** Time :            0.43000 ps :
     Properties:                   Instantaneous       Averaged
       Kinetic energy    (eV) =       0.406861          0.407161
       Potential energy  (eV) =    -427.996453       -428.016298
       Total energy      (eV) =    -427.589592       -427.609137
       Temperature       (K)  =      49.962129         49.998982
       Pressure         (GPa) =       0.869256          0.551653
  ** Time :            0.43500 ps :
     Properties:                   Instantaneous       Averaged
       Kinetic energy    (eV) =       0.406698          0.407156
       Potential energy  (eV) =    -427.961828       -428.015672
       Total energy      (eV) =    -427.555130       -427.608516
       Temperature       (K)  =      49.942172         49.998329
       Pressure         (GPa) =       0.322329          0.549017
  ** Time :            0.44000 ps :
     Properties:                   Instantaneous       Averaged
       Kinetic energy    (eV) =       0.407465          0.407159
       Potential energy  (eV) =    -427.954876       -428.014981
       Total energy      (eV) =    -427.547412       -427.607821
       Temperature       (K)  =      50.036277         49.998761
       Pressure         (GPa) =       0.483329          0.548271
  ** Time :            0.44500 ps :
     Properties:                   Instantaneous       Averaged
       Kinetic energy    (eV) =       0.406332          0.407150
       Potential energy  (eV) =    -427.897900       -428.013665
       Total energy      (eV) =    -427.491568       -427.606515
       Temperature       (K)  =      49.897155         49.997619
       Pressure         (GPa) =       0.328502          0.545802
  ** Time :            0.45000 ps :
     Properties:                   Instantaneous       Averaged
       Kinetic energy    (eV) =       0.408381          0.407164
       Potential energy  (eV) =    -427.904129       -428.012448
       Total energy      (eV) =    -427.495748       -427.605284
       Temperature       (K)  =      50.148801         49.999299
       Pressure         (GPa) =       0.724101          0.547783
  ** Time :            0.45500 ps :
     Properties:                   Instantaneous       Averaged
       Kinetic energy    (eV) =       0.408415          0.407177
       Potential energy  (eV) =    -428.045209       -428.012808
       Total energy      (eV) =    -427.636794       -427.605631
       Temperature       (K)  =      50.152915         50.000987
       Pressure         (GPa) =       1.024568          0.553022
  ** Time :            0.46000 ps :
     Properties:                   Instantaneous       Averaged
       Kinetic energy    (eV) =       0.407698          0.407183
       Potential energy  (eV) =    -428.146237       -428.014258
       Total energy      (eV) =    -427.738539       -427.607075
       Temperature       (K)  =      50.064869         50.001681
       Pressure         (GPa) =       0.837191          0.556111
  ** Time :            0.46500 ps :
     Properties:                   Instantaneous       Averaged
       Kinetic energy    (eV) =       0.407442          0.407186
       Potential energy  (eV) =    -428.179218       -428.016032
       Total energy      (eV) =    -427.771776       -427.608846
       Temperature       (K)  =      50.033427         50.002023
       Pressure         (GPa) =       0.881253          0.559607
  ** Time :            0.47000 ps :
     Properties:                   Instantaneous       Averaged
       Kinetic energy    (eV) =       0.407110          0.407185
       Potential energy  (eV) =    -428.202522       -428.018016
       Total energy      (eV) =    -427.795412       -427.610831
       Temperature       (K)  =      49.992739         50.001924
       Pressure         (GPa) =       0.922640          0.563469
  ** Time :            0.47500 ps :
     Properties:                   Instantaneous       Averaged
       Kinetic energy    (eV) =       0.406509          0.407178
       Potential energy  (eV) =    -428.155538       -428.019464
       Total energy      (eV) =    -427.749029       -427.612286
       Temperature       (K)  =      49.918884         50.001050
       Pressure         (GPa) =       0.463994          0.562422
  ** Time :            0.48000 ps :
     Properties:                   Instantaneous       Averaged
       Kinetic energy    (eV) =       0.406243          0.407168
       Potential energy  (eV) =    -428.086832       -428.020166
       Total energy      (eV) =    -427.680589       -427.612997
       Temperature       (K)  =      49.886298         49.999854
       Pressure         (GPa) =       0.429326          0.561036
  ** Time :            0.48500 ps :
     Properties:                   Instantaneous       Averaged
       Kinetic energy    (eV) =       0.406883          0.407165
       Potential energy  (eV) =    -428.004151       -428.020000
       Total energy      (eV) =    -427.597268       -427.612835
       Temperature       (K)  =      49.964841         49.999493
       Pressure         (GPa) =       0.641745          0.561868
  ** Time :            0.49000 ps :
     Properties:                   Instantaneous       Averaged
       Kinetic energy    (eV) =       0.406971          0.407163
       Potential energy  (eV) =    -427.998721       -428.019783
       Total energy      (eV) =    -427.591750       -427.612620
       Temperature       (K)  =      49.975598         49.999250
       Pressure         (GPa) =      -0.211516          0.553976
  ** Time :            0.49500 ps :
     Properties:                   Instantaneous       Averaged
       Kinetic energy    (eV) =       0.406328          0.407155
       Potential energy  (eV) =    -427.944030       -428.019018
       Total energy      (eV) =    -427.537703       -427.611863
       Temperature       (K)  =      49.896623         49.998213
       Pressure         (GPa) =       0.570712          0.554145
  ** Time :            0.50000 ps :
     Properties:                   Instantaneous       Averaged
       Kinetic energy    (eV) =       0.406769          0.407151
       Potential energy  (eV) =    -427.879202       -428.017620
       Total energy      (eV) =    -427.472433       -427.610469
       Temperature       (K)  =      49.950805         49.997739
       Pressure         (GPa) =       0.921539          0.557819
  ** Time :            0.50500 ps :
     Properties:                   Instantaneous       Averaged
       Kinetic energy    (eV) =       0.408043          0.407160
       Potential energy  (eV) =    -427.919877       -428.016652
       Total energy      (eV) =    -427.511834       -427.609492
       Temperature       (K)  =      50.107256         49.998823
       Pressure         (GPa) =       0.496105          0.557208
  ** Time :            0.51000 ps :
     Properties:                   Instantaneous       Averaged
       Kinetic energy    (eV) =       0.407305          0.407161
       Potential energy  (eV) =    -427.973205       -428.016226
       Total energy      (eV) =    -427.565900       -427.609065
       Temperature       (K)  =      50.016659         49.998998
       Pressure         (GPa) =       0.903613          0.560604
  ** Time :            0.51500 ps :
     Properties:                   Instantaneous       Averaged
       Kinetic energy    (eV) =       0.408259          0.407172
       Potential energy  (eV) =    -428.041470       -428.016471
       Total energy      (eV) =    -427.633211       -427.609299
       Temperature       (K)  =      50.133819         50.000307
       Pressure         (GPa) =       0.763243          0.562571
  ** Time :            0.52000 ps :
     Properties:                   Instantaneous       Averaged
       Kinetic energy    (eV) =       0.407509          0.407175
       Potential energy  (eV) =    -428.118895       -428.017456
       Total energy      (eV) =    -427.711386       -427.610281
       Temperature       (K)  =      50.041724         50.000705
       Pressure         (GPa) =       0.988618          0.566668
  ** Time :            0.52500 ps :
     Properties:                   Instantaneous       Averaged
       Kinetic energy    (eV) =       0.407242          0.407176
       Potential energy  (eV) =    -428.146995       -428.018690
       Total energy      (eV) =    -427.739753       -427.611514
       Temperature       (K)  =      50.008918         50.000783
       Pressure         (GPa) =       1.381030          0.574424
  ** Time :            0.53000 ps :
     Properties:                   Instantaneous       Averaged
       Kinetic energy    (eV) =       0.407021          0.407174
       Potential energy  (eV) =    -428.142939       -428.019862
       Total energy      (eV) =    -427.735919       -427.612688
       Temperature       (K)  =      49.981721         50.000604
       Pressure         (GPa) =       0.926873          0.577749
  ** Time :            0.53500 ps :
     Properties:                   Instantaneous       Averaged
       Kinetic energy    (eV) =       0.406868          0.407171
       Potential energy  (eV) =    -428.129150       -428.020883
       Total energy      (eV) =    -427.722282       -427.613712
       Temperature       (K)  =      49.962926         50.000252
       Pressure         (GPa) =       0.619358          0.578138
  ** Time :            0.54000 ps :
     Properties:                   Instantaneous       Averaged
       Kinetic energy    (eV) =       0.406950          0.407169
       Potential energy  (eV) =    -428.088362       -428.021508
       Total energy      (eV) =    -427.681412       -427.614339
       Temperature       (K)  =      49.973012         49.999999
       Pressure         (GPa) =       1.084620          0.582827
  ** Time :            0.54500 ps :
     Properties:                   Instantaneous       Averaged
       Kinetic energy    (eV) =       0.406996          0.407168
       Potential energy  (eV) =    -428.088609       -428.022124
       Total energy      (eV) =    -427.681613       -427.614956
       Temperature       (K)  =      49.978708         49.999804
       Pressure         (GPa) =       1.089456          0.587475
  ** Time :            0.55000 ps :
     Properties:                   Instantaneous       Averaged
       Kinetic energy    (eV) =       0.405993          0.407157
       Potential energy  (eV) =    -428.010275       -428.022016
       Total energy      (eV) =    -427.604282       -427.614859
       Temperature       (K)  =      49.855530         49.998492
       Pressure         (GPa) =       1.136762          0.592469
  ** Time :            0.55500 ps :
     Properties:                   Instantaneous       Averaged
       Kinetic energy    (eV) =       0.407351          0.407159
       Potential energy  (eV) =    -427.953840       -428.021402
       Total energy      (eV) =    -427.546489       -427.614243
       Temperature       (K)  =      50.022321         49.998707
       Pressure         (GPa) =       1.155245          0.597539
  ** Time :            0.56000 ps :
     Properties:                   Instantaneous       Averaged
       Kinetic energy    (eV) =       0.407754          0.407164
       Potential energy  (eV) =    -428.012022       -428.021318
       Total energy      (eV) =    -427.604268       -427.614154
       Temperature       (K)  =      50.071752         49.999359
       Pressure         (GPa) =       0.755284          0.598947
  ** Time :            0.56500 ps :
     Properties:                   Instantaneous       Averaged
       Kinetic energy    (eV) =       0.406867          0.407162
       Potential energy  (eV) =    -428.018108       -428.021290
       Total energy      (eV) =    -427.611241       -427.614128
       Temperature       (K)  =      49.962822         49.999036
       Pressure         (GPa) =       0.410591          0.597280
  ** Time :            0.57000 ps :
     Properties:                   Instantaneous       Averaged
       Kinetic energy    (eV) =       0.407063          0.407161
       Potential energy  (eV) =    -428.002932       -428.021129
       Total energy      (eV) =    -427.595869       -427.613968
       Temperature       (K)  =      49.986986         49.998930
       Pressure         (GPa) =       0.013603          0.592160
  ** Time :            0.57500 ps :
     Properties:                   Instantaneous       Averaged
       Kinetic energy    (eV) =       0.407416          0.407163
       Potential energy  (eV) =    -428.002008       -428.020962
       Total energy      (eV) =    -427.594591       -427.613800
       Temperature       (K)  =      50.030317         49.999203
       Pressure         (GPa) =       0.451660          0.590939
  ** Time :            0.58000 ps :
     Properties:                   Instantaneous       Averaged
       Kinetic energy    (eV) =       0.407348          0.407165
       Potential energy  (eV) =    -428.035949       -428.021092
       Total energy      (eV) =    -427.628601       -427.613927
       Temperature       (K)  =      50.021877         49.999399
       Pressure         (GPa) =      -0.174087          0.584344
  ** Time :            0.58500 ps :
     Properties:                   Instantaneous       Averaged
       Kinetic energy    (eV) =       0.406810          0.407161
       Potential energy  (eV) =    -428.019001       -428.021074
       Total energy      (eV) =    -427.612192       -427.613912
       Temperature       (K)  =      49.955815         49.999026
       Pressure         (GPa) =      -0.348188          0.576373
  ** Time :            0.59000 ps :
     Properties:                   Instantaneous       Averaged
       Kinetic energy    (eV) =       0.407758          0.407167
       Potential energy  (eV) =    -428.032243       -428.021168
       Total energy      (eV) =    -427.624486       -427.614002
       Temperature       (K)  =      50.072239         49.999647
       Pressure         (GPa) =      -0.065177          0.570936
  ** Time :            0.59500 ps :
     Properties:                   Instantaneous       Averaged
       Kinetic energy    (eV) =       0.407389          0.407168
       Potential energy  (eV) =    -428.088213       -428.021732
       Total energy      (eV) =    -427.680824       -427.614563
       Temperature       (K)  =      50.027019         49.999877
       Pressure         (GPa) =       0.152521          0.567420
  ** Time :            0.60000 ps :
     Properties:                   Instantaneous       Averaged
       Kinetic energy    (eV) =       0.407303          0.407170
       Potential energy  (eV) =    -428.102570       -428.022405
       Total energy      (eV) =    -427.695267       -427.615236
       Temperature       (K)  =      50.016398         50.000014
       Pressure         (GPa) =       0.166861          0.564082
  ** Time :            0.60500 ps :
     Properties:                   Instantaneous       Averaged
       Kinetic energy    (eV) =       0.407249          0.407170
       Potential energy  (eV) =    -428.119688       -428.023209
       Total energy      (eV) =    -427.712439       -427.616039
       Temperature       (K)  =      50.009759         50.000095
       Pressure         (GPa) =       0.412683          0.562831
  ** Time :            0.61000 ps :
     Properties:                   Instantaneous       Averaged
       Kinetic energy    (eV) =       0.406751          0.407167
       Potential energy  (eV) =    -428.118360       -428.023989
       Total energy      (eV) =    -427.711609       -427.616823
       Temperature       (K)  =      49.948594         49.999673
       Pressure         (GPa) =       0.420323          0.561663
  ** Time :            0.61500 ps :
     Properties:                   Instantaneous       Averaged
       Kinetic energy    (eV) =       0.407108          0.407166
       Potential energy  (eV) =    -428.084913       -428.024485
       Total energy      (eV) =    -427.677805       -427.617318
       Temperature       (K)  =      49.992453         49.999614
       Pressure         (GPa) =       0.611299          0.562067
  ** Time :            0.62000 ps :
     Properties:                   Instantaneous       Averaged
       Kinetic energy    (eV) =       0.406367          0.407160
       Potential energy  (eV) =    -428.052569       -428.024711
       Total energy      (eV) =    -427.646202       -427.617551
       Temperature       (K)  =      49.901413         49.998822
       Pressure         (GPa) =       1.021276          0.565770
  ** Time :            0.62500 ps :
     Properties:                   Instantaneous       Averaged
       Kinetic energy    (eV) =       0.407079          0.407159
       Potential energy  (eV) =    -427.983648       -428.024383
       Total energy      (eV) =    -427.576569       -427.617223
       Temperature       (K)  =      49.988909         49.998743
       Pressure         (GPa) =       1.035489          0.569528
  ** Time :            0.63000 ps :
     Properties:                   Instantaneous       Averaged
       Kinetic energy    (eV) =       0.407431          0.407161
       Potential energy  (eV) =    -428.027845       -428.024410
       Total energy      (eV) =    -427.620414       -427.617249
       Temperature       (K)  =      50.032180         49.999008
       Pressure         (GPa) =       1.170830          0.574300
  ** Time :            0.63500 ps :
     Properties:                   Instantaneous       Averaged
       Kinetic energy    (eV) =       0.407073          0.407161
       Potential energy  (eV) =    -428.047752       -428.024594
       Total energy      (eV) =    -427.640679       -427.617433
       Temperature       (K)  =      49.988114         49.998922
       Pressure         (GPa) =       0.770065          0.575841
  ** Time :            0.64000 ps :
     Properties:                   Instantaneous       Averaged
       Kinetic energy    (eV) =       0.406911          0.407159
       Potential energy  (eV) =    -428.007903       -428.024464
       Total energy      (eV) =    -427.600991       -427.617305
       Temperature       (K)  =      49.968322         49.998683
       Pressure         (GPa) =       0.281339          0.573540
  ** Time :            0.64500 ps :
     Properties:                   Instantaneous       Averaged
       Kinetic energy    (eV) =       0.407680          0.407163
       Potential energy  (eV) =    -428.048540       -428.024650
       Total energy      (eV) =    -427.640860       -427.617487
       Temperature       (K)  =      50.062660         49.999179
       Pressure         (GPa) =       0.946038          0.576428
  ** Time :            0.65000 ps :
     Properties:                   Instantaneous       Averaged
       Kinetic energy    (eV) =       0.406735          0.407159
       Potential energy  (eV) =    -428.064908       -428.024960
       Total energy      (eV) =    -427.658173       -427.617800
       Temperature       (K)  =      49.946708         49.998776
       Pressure         (GPa) =       0.438142          0.575364
  ** Time :            0.65500 ps :
     Properties:                   Instantaneous       Averaged
       Kinetic energy    (eV) =       0.406851          0.407157
       Potential energy  (eV) =    -428.037203       -428.025053
       Total energy      (eV) =    -427.630353       -427.617896
       Temperature       (K)  =      49.960844         49.998486
       Pressure         (GPa) =       0.534426          0.575052
  ** Time :            0.66000 ps :
     Properties:                   Instantaneous       Averaged
       Kinetic energy    (eV) =       0.406169          0.407150
       Potential energy  (eV) =    -427.937739       -428.024392
       Total energy      (eV) =    -427.531570       -427.617242
       Temperature       (K)  =      49.877167         49.997567
       Pressure         (GPa) =       0.330479          0.573199
  ** Time :            0.66500 ps :
     Properties:                   Instantaneous       Averaged
       Kinetic energy    (eV) =       0.408431          0.407159
       Potential energy  (eV) =    -427.954023       -428.023863
       Total energy      (eV) =    -427.545592       -427.616704
       Temperature       (K)  =      50.154936         49.998750
       Pressure         (GPa) =       0.810922          0.574986
  ** Time :            0.67000 ps :
     Properties:                   Instantaneous       Averaged
       Kinetic energy    (eV) =       0.406886          0.407157
       Potential energy  (eV) =    -428.029183       -428.023902
       Total energy      (eV) =    -427.622296       -427.616745
       Temperature       (K)  =      49.965257         49.998500
       Pressure         (GPa) =       0.948304          0.577772
  ** Time :            0.67500 ps :
     Properties:                   Instantaneous       Averaged
       Kinetic energy    (eV) =       0.407570          0.407160
       Potential energy  (eV) =    -428.020321       -428.023876
       Total energy      (eV) =    -427.612751       -427.616716
       Temperature       (K)  =      50.049202         49.998876
       Pressure         (GPa) =       1.293069          0.583071
  ** Time :            0.68000 ps :
     Properties:                   Instantaneous       Averaged
       Kinetic energy    (eV) =       0.407916          0.407166
       Potential energy  (eV) =    -428.081257       -428.024298
       Total energy      (eV) =    -427.673341       -427.617132
       Temperature       (K)  =      50.091624         49.999558
       Pressure         (GPa) =       1.441727          0.589384
  ** Time :            0.68500 ps :
     Properties:                   Instantaneous       Averaged
       Kinetic energy    (eV) =       0.407178          0.407166
       Potential energy  (eV) =    -428.106347       -428.024897
       Total energy      (eV) =    -427.699169       -427.617731
       Temperature       (K)  =      50.001007         49.999568
       Pressure         (GPa) =       1.408598          0.595364
  ** Time :            0.69000 ps :
     Properties:                   Instantaneous       Averaged
       Kinetic energy    (eV) =       0.406536          0.407161
       Potential energy  (eV) =    -428.086280       -428.025342
       Total energy      (eV) =    -427.679744       -427.618180
       Temperature       (K)  =      49.922233         49.999008
       Pressure         (GPa) =       0.894576          0.597532
  ** Time :            0.69500 ps :
     Properties:                   Instantaneous       Averaged
       Kinetic energy    (eV) =       0.407464          0.407164
       Potential energy  (eV) =    -428.063439       -428.025616
       Total energy      (eV) =    -427.655975       -427.618452
       Temperature       (K)  =      50.036191         49.999275
       Pressure         (GPa) =       0.513255          0.596926
  ** Time :            0.70000 ps :
     Properties:                   Instantaneous       Averaged
       Kinetic energy    (eV) =       0.407389          0.407165
       Potential energy  (eV) =    -428.085412       -428.026043
       Total energy      (eV) =    -427.678023       -427.618878
       Temperature       (K)  =      50.026972         49.999473
       Pressure         (GPa) =       0.041193          0.592957
  ** Time :            0.70500 ps :
     Properties:                   Instantaneous       Averaged
       Kinetic energy    (eV) =       0.407154          0.407165
       Potential energy  (eV) =    -428.098891       -428.026559
       Total energy      (eV) =    -427.691737       -427.619394
       Temperature       (K)  =      49.998130         49.999464
       Pressure         (GPa) =      -0.275265          0.586799
  ** Time :            0.71000 ps :
     Properties:                   Instantaneous       Averaged
       Kinetic energy    (eV) =       0.406860          0.407163
       Potential energy  (eV) =    -428.083237       -428.026959
       Total energy      (eV) =    -427.676377       -427.619796
       Temperature       (K)  =      49.961948         49.999199
       Pressure         (GPa) =      -0.432562          0.579620
  ** Time :            0.71500 ps :
     Properties:                   Instantaneous       Averaged
       Kinetic energy    (eV) =       0.407058          0.407162
       Potential energy  (eV) =    -428.078239       -428.027317
       Total energy      (eV) =    -427.671181       -427.620155
       Temperature       (K)  =      49.986360         49.999110
       Pressure         (GPa) =      -0.153632          0.574493
  ** Time :            0.72000 ps :
     Properties:                   Instantaneous       Averaged
       Kinetic energy    (eV) =       0.406687          0.407159
       Potential energy  (eV) =    -428.011466       -428.027207
       Total energy      (eV) =    -427.604778       -427.620048
       Temperature       (K)  =      49.940810         49.998705
       Pressure         (GPa) =       0.377143          0.573122
  ** Time :            0.72500 ps :
     Properties:                   Instantaneous       Averaged
       Kinetic energy    (eV) =       0.406992          0.407158
       Potential energy  (eV) =    -428.004038       -428.027047
       Total energy      (eV) =    -427.597046       -427.619890
       Temperature       (K)  =      49.978181         49.998563
       Pressure         (GPa) =       0.556758          0.573009
  ** Time :            0.73000 ps :
     Properties:                   Instantaneous       Averaged
       Kinetic energy    (eV) =       0.406800          0.407155
       Potential energy  (eV) =    -427.970812       -428.026662
       Total energy      (eV) =    -427.564012       -427.619507
       Temperature       (K)  =      49.954629         49.998262
       Pressure         (GPa) =      -0.364949          0.566585
  ** Time :            0.73500 ps :
     Properties:                   Instantaneous       Averaged
       Kinetic energy    (eV) =       0.407913          0.407160
       Potential energy  (eV) =    -427.994969       -428.026447
       Total energy      (eV) =    -427.587056       -427.619286
       Temperature       (K)  =      50.091302         49.998895
       Pressure         (GPa) =      -0.297624          0.560706
  ** Time :            0.74000 ps :
     Properties:                   Instantaneous       Averaged
       Kinetic energy    (eV) =       0.406753          0.407158
       Potential energy  (eV) =    -428.021576       -428.026414
       Total energy      (eV) =    -427.614823       -427.619256
       Temperature       (K)  =      49.948870         49.998557
       Pressure         (GPa) =       0.484471          0.560191
  ** Time :            0.74500 ps :
     Properties:                   Instantaneous       Averaged
       Kinetic energy    (eV) =       0.407334          0.407159
       Potential energy  (eV) =    -428.028484       -428.026427
       Total energy      (eV) =    -427.621150       -427.619269
       Temperature       (K)  =      50.020150         49.998702
       Pressure         (GPa) =       0.334591          0.558677
  ** Time :            0.75000 ps :
     Properties:                   Instantaneous       Averaged
       Kinetic energy    (eV) =       0.407266          0.407160
       Potential energy  (eV) =    -428.051801       -428.026597
       Total energy      (eV) =    -427.644535       -427.619437
       Temperature       (K)  =      50.011845         49.998790
       Pressure         (GPa) =       0.807103          0.560333
  ** Time :            0.75500 ps :
     Properties:                   Instantaneous       Averaged
       Kinetic energy    (eV) =       0.407258          0.407160
       Potential energy  (eV) =    -428.052927       -428.026771
       Total energy      (eV) =    -427.645669       -427.619611
       Temperature       (K)  =      50.010842         49.998870
       Pressure         (GPa) =       1.279461          0.565095
  ** Time :            0.76000 ps :
     Properties:                   Instantaneous       Averaged
       Kinetic energy    (eV) =       0.407369          0.407162
       Potential energy  (eV) =    -428.063116       -428.027010
       Total energy      (eV) =    -427.655746       -427.619849
       Temperature       (K)  =      50.024568         49.999039
       Pressure         (GPa) =       1.127208          0.568794
  ** Time :            0.76500 ps :
     Properties:                   Instantaneous       Averaged
       Kinetic energy    (eV) =       0.407209          0.407162
       Potential energy  (eV) =    -428.091962       -428.027435
       Total energy      (eV) =    -427.684753       -427.620273
       Temperature       (K)  =      50.004882         49.999077
       Pressure         (GPa) =       1.293157          0.573528
  ** Time :            0.77000 ps :
     Properties:                   Instantaneous       Averaged
       Kinetic energy    (eV) =       0.407420          0.407164
       Potential energy  (eV) =    -428.102316       -428.027921
       Total energy      (eV) =    -427.694896       -427.620757
       Temperature       (K)  =      50.030767         49.999283
       Pressure         (GPa) =       1.131623          0.577152
  ** Time :            0.77500 ps :
     Properties:                   Instantaneous       Averaged
       Kinetic energy    (eV) =       0.407335          0.407165
       Potential energy  (eV) =    -428.110320       -428.028453
       Total energy      (eV) =    -427.702985       -427.621288
       Temperature       (K)  =      50.020291         49.999418
       Pressure         (GPa) =       1.185756          0.581078
  ** Time :            0.78000 ps :
     Properties:                   Instantaneous       Averaged
       Kinetic energy    (eV) =       0.407190          0.407165
       Potential energy  (eV) =    -428.114128       -428.029002
       Total energy      (eV) =    -427.706938       -427.621837
       Temperature       (K)  =      50.002574         49.999438
       Pressure         (GPa) =       1.210381          0.585112
  ** Time :            0.78500 ps :
     Properties:                   Instantaneous       Averaged
       Kinetic energy    (eV) =       0.406595          0.407161
       Potential energy  (eV) =    -428.101618       -428.029464
       Total energy      (eV) =    -427.695022       -427.622303
       Temperature       (K)  =      49.929518         49.998993
       Pressure         (GPa) =       1.178770          0.588894
  ** Time :            0.79000 ps :
     Properties:                   Instantaneous       Averaged
       Kinetic energy    (eV) =       0.405950          0.407154
       Potential energy  (eV) =    -428.005539       -428.029313
       Total energy      (eV) =    -427.599590       -427.622159
       Temperature       (K)  =      49.850214         49.998051
       Pressure         (GPa) =       0.737149          0.589832
  ** Time :            0.79500 ps :
     Properties:                   Instantaneous       Averaged
       Kinetic energy    (eV) =       0.407133          0.407153
       Potential energy  (eV) =    -427.908108       -428.028551
       Total energy      (eV) =    -427.500975       -427.621397
       Temperature       (K)  =      49.995545         49.998036
       Pressure         (GPa) =       0.525587          0.589428
  ** Time :            0.80000 ps :
     Properties:                   Instantaneous       Averaged
       Kinetic energy    (eV) =       0.407325          0.407154
       Potential energy  (eV) =    -427.933052       -428.027954
       Total energy      (eV) =    -427.525727       -427.620799
       Temperature       (K)  =      50.019153         49.998168
       Pressure         (GPa) =       0.360976          0.588000
  ** Time :            0.80500 ps :
     Properties:                   Instantaneous       Averaged
       Kinetic energy    (eV) =       0.407442          0.407156
       Potential energy  (eV) =    -427.957179       -428.027514
       Total energy      (eV) =    -427.549737       -427.620358
       Temperature       (K)  =      50.033454         49.998387
       Pressure         (GPa) =       0.784459          0.589220
  ** Time :            0.81000 ps :
     Properties:                   Instantaneous       Averaged
       Kinetic energy    (eV) =       0.407131          0.407156
       Potential energy  (eV) =    -427.977115       -428.027203
       Total energy      (eV) =    -427.569984       -427.620047
       Temperature       (K)  =      49.995314         49.998368
       Pressure         (GPa) =      -0.031728          0.585387
[...]
       Total energy      (eV) =    -427.661865       -427.636783
       Temperature       (K)  =      49.885824         49.996269
       Pressure         (GPa) =       0.705302          0.633198
  ** Time :            4.78500 ps :
     Properties:                   Instantaneous       Averaged
       Kinetic energy    (eV) =       0.406883          0.407139
       Potential energy  (eV) =    -427.989513       -428.043865
       Total energy      (eV) =    -427.582630       -427.636727
       Temperature       (K)  =      49.964775         49.996236
       Pressure         (GPa) =       0.867056          0.633442
  ** Time :            4.79000 ps :
     Properties:                   Instantaneous       Averaged
       Kinetic energy    (eV) =       0.408304          0.407140
       Potential energy  (eV) =    -428.062058       -428.043884
       Total energy      (eV) =    -427.653754       -427.636744
       Temperature       (K)  =      50.139345         49.996385
       Pressure         (GPa) =       1.029896          0.633856
  ** Time :            4.79500 ps :
     Properties:                   Instantaneous       Averaged
       Kinetic energy    (eV) =       0.406882          0.407140
       Potential energy  (eV) =    -428.104910       -428.043948
       Total energy      (eV) =    -427.698028       -427.636808
       Temperature       (K)  =      49.964665         49.996352
       Pressure         (GPa) =       0.927314          0.634162
  ** Time :            4.80000 ps :
     Properties:                   Instantaneous       Averaged
       Kinetic energy    (eV) =       0.407404          0.407140
       Potential energy  (eV) =    -428.065640       -428.043971
       Total energy      (eV) =    -427.658236       -427.636831
       Temperature       (K)  =      50.028797         49.996386
       Pressure         (GPa) =       1.266430          0.634820
  ** Time :            4.80500 ps :
     Properties:                   Instantaneous       Averaged
       Kinetic energy    (eV) =       0.407500          0.407140
       Potential energy  (eV) =    -428.126303       -428.044056
       Total energy      (eV) =    -427.718802       -427.636916
       Temperature       (K)  =      50.040651         49.996432
       Pressure         (GPa) =       0.413426          0.634590
  ** Time :            4.81000 ps :
     Properties:                   Instantaneous       Averaged
       Kinetic energy    (eV) =       0.405710          0.407139
       Potential energy  (eV) =    -428.056247       -428.044069
       Total energy      (eV) =    -427.650538       -427.636930
       Temperature       (K)  =      49.820730         49.996250
       Pressure         (GPa) =       1.268490          0.635249
  ** Time :            4.81500 ps :
     Properties:                   Instantaneous       Averaged
       Kinetic energy    (eV) =       0.406955          0.407139
       Potential energy  (eV) =    -427.944367       -428.043965
       Total energy      (eV) =    -427.537413       -427.636827
       Temperature       (K)  =      49.973627         49.996226
       Pressure         (GPa) =       0.251256          0.634850
  ** Time :            4.82000 ps :
     Properties:                   Instantaneous       Averaged
       Kinetic energy    (eV) =       0.407226          0.407139
       Potential energy  (eV) =    -427.990629       -428.043910
       Total energy      (eV) =    -427.583403       -427.636771
       Temperature       (K)  =      50.006998         49.996237
       Pressure         (GPa) =       0.906495          0.635132
  ** Time :            4.82500 ps :
     Properties:                   Instantaneous       Averaged
       Kinetic energy    (eV) =       0.407544          0.407139
       Potential energy  (eV) =    -428.020253       -428.043885
       Total energy      (eV) =    -427.612709       -427.636746
       Temperature       (K)  =      50.045951         49.996289
       Pressure         (GPa) =       0.827791          0.635332
  ** Time :            4.83000 ps :
     Properties:                   Instantaneous       Averaged
       Kinetic energy    (eV) =       0.407049          0.407139
       Potential energy  (eV) =    -428.054122       -428.043896
       Total energy      (eV) =    -427.647073       -427.636757
       Temperature       (K)  =      49.985202         49.996277
       Pressure         (GPa) =       0.265767          0.634949
  ** Time :            4.83500 ps :
     Properties:                   Instantaneous       Averaged
       Kinetic energy    (eV) =       0.407590          0.407140
       Potential energy  (eV) =    -428.041852       -428.043894
       Total energy      (eV) =    -427.634263       -427.636754
       Temperature       (K)  =      50.051597         49.996335
       Pressure         (GPa) =       0.585509          0.634898
  ** Time :            4.84000 ps :
     Properties:                   Instantaneous       Averaged
       Kinetic energy    (eV) =       0.407263          0.407140
       Potential energy  (eV) =    -428.084049       -428.043935
       Total energy      (eV) =    -427.676786       -427.636796
       Temperature       (K)  =      50.011545         49.996350
       Pressure         (GPa) =      -0.137432          0.634100
  ** Time :            4.84500 ps :
     Properties:                   Instantaneous       Averaged
       Kinetic energy    (eV) =       0.406828          0.407139
       Potential energy  (eV) =    -428.064518       -428.043957
       Total energy      (eV) =    -427.657689       -427.636817
       Temperature       (K)  =      49.958117         49.996311
       Pressure         (GPa) =       0.444433          0.633904
  ** Time :            4.85000 ps :
     Properties:                   Instantaneous       Averaged
       Kinetic energy    (eV) =       0.407193          0.407139
       Potential energy  (eV) =    -428.045816       -428.043959
       Total energy      (eV) =    -427.638623       -427.636819
       Temperature       (K)  =      50.002839         49.996318
       Pressure         (GPa) =       0.361391          0.633623
  ** Time :            4.85500 ps :
     Properties:                   Instantaneous       Averaged
       Kinetic energy    (eV) =       0.406945          0.407139
       Potential energy  (eV) =    -428.076972       -428.043993
       Total energy      (eV) =    -427.670027       -427.636853
       Temperature       (K)  =      49.972479         49.996293
       Pressure         (GPa) =       1.193014          0.634199
  ** Time :            4.86000 ps :
     Properties:                   Instantaneous       Averaged
       Kinetic energy    (eV) =       0.406422          0.407138
       Potential energy  (eV) =    -428.048003       -428.043997
       Total energy      (eV) =    -427.641581       -427.636858
       Temperature       (K)  =      49.908215         49.996202
       Pressure         (GPa) =       1.154440          0.634735
  ** Time :            4.86500 ps :
     Properties:                   Instantaneous       Averaged
       Kinetic energy    (eV) =       0.407533          0.407139
       Potential energy  (eV) =    -428.036389       -428.043989
       Total energy      (eV) =    -427.628856       -427.636850
       Temperature       (K)  =      50.044701         49.996252
       Pressure         (GPa) =       1.115132          0.635228
  ** Time :            4.87000 ps :
     Properties:                   Instantaneous       Averaged
       Kinetic energy    (eV) =       0.407204          0.407139
       Potential energy  (eV) =    -428.058705       -428.044004
       Total energy      (eV) =    -427.651501       -427.636865
       Temperature       (K)  =      50.004278         49.996260
       Pressure         (GPa) =       0.821748          0.635420
  ** Time :            4.87500 ps :
     Properties:                   Instantaneous       Averaged
       Kinetic energy    (eV) =       0.407532          0.407139
       Potential energy  (eV) =    -428.034722       -428.043995
       Total energy      (eV) =    -427.627190       -427.636855
       Temperature       (K)  =      50.044524         49.996310
       Pressure         (GPa) =       0.866019          0.635656
  ** Time :            4.88000 ps :
     Properties:                   Instantaneous       Averaged
       Kinetic energy    (eV) =       0.407511          0.407140
       Potential energy  (eV) =    -428.096775       -428.044049
       Total energy      (eV) =    -427.689263       -427.636909
       Temperature       (K)  =      50.041993         49.996357
       Pressure         (GPa) =       0.573193          0.635592
  ** Time :            4.88500 ps :
     Properties:                   Instantaneous       Averaged
       Kinetic energy    (eV) =       0.405894          0.407138
       Potential energy  (eV) =    -428.034470       -428.044039
       Total energy      (eV) =    -427.628576       -427.636900
       Temperature       (K)  =      49.843421         49.996200
       Pressure         (GPa) =       0.103360          0.635048
  ** Time :            4.89000 ps :
     Properties:                   Instantaneous       Averaged
       Kinetic energy    (eV) =       0.407327          0.407139
       Potential energy  (eV) =    -427.973543       -428.043967
       Total energy      (eV) =    -427.566216       -427.636828
       Temperature       (K)  =      50.019338         49.996224
       Pressure         (GPa) =       0.707245          0.635121
  ** Time :            4.89500 ps :
     Properties:                   Instantaneous       Averaged
       Kinetic energy    (eV) =       0.407102          0.407139
       Potential energy  (eV) =    -427.976005       -428.043897
       Total energy      (eV) =    -427.568903       -427.636759
       Temperature       (K)  =      49.991661         49.996219
       Pressure         (GPa) =       0.674708          0.635162
  ** Time :            4.90000 ps :
     Properties:                   Instantaneous       Averaged
       Kinetic energy    (eV) =       0.407929          0.407139
       Potential energy  (eV) =    -428.064662       -428.043918
       Total energy      (eV) =    -427.656733       -427.636779
       Temperature       (K)  =      50.093306         49.996318
       Pressure         (GPa) =       0.809540          0.635340
  ** Time :            4.90500 ps :
     Properties:                   Instantaneous       Averaged
       Kinetic energy    (eV) =       0.406726          0.407139
       Potential energy  (eV) =    -428.095804       -428.043971
       Total energy      (eV) =    -427.689079       -427.636832
       Temperature       (K)  =      49.945497         49.996266
       Pressure         (GPa) =       0.725461          0.635432
  ** Time :            4.91000 ps :
     Properties:                   Instantaneous       Averaged
       Kinetic energy    (eV) =       0.406905          0.407139
       Potential energy  (eV) =    -428.031591       -428.043959
       Total energy      (eV) =    -427.624687       -427.636820
       Temperature       (K)  =      49.967512         49.996237
       Pressure         (GPa) =       0.352725          0.635144
  ** Time :            4.91500 ps :
     Properties:                   Instantaneous       Averaged
       Kinetic energy    (eV) =       0.407519          0.407139
       Potential energy  (eV) =    -428.028395       -428.043943
       Total energy      (eV) =    -427.620875       -427.636804
       Temperature       (K)  =      50.042979         49.996285
       Pressure         (GPa) =       1.647788          0.636174
  ** Time :            4.92000 ps :
     Properties:                   Instantaneous       Averaged
       Kinetic energy    (eV) =       0.407621          0.407140
       Potential energy  (eV) =    -428.080092       -428.043980
       Total energy      (eV) =    -427.672470       -427.636840
       Temperature       (K)  =      50.055498         49.996345
       Pressure         (GPa) =       0.853038          0.636394
  ** Time :            4.92500 ps :
     Properties:                   Instantaneous       Averaged
       Kinetic energy    (eV) =       0.406959          0.407139
       Potential energy  (eV) =    -428.097278       -428.044034
       Total energy      (eV) =    -427.690318       -427.636894
       Temperature       (K)  =      49.974193         49.996322
       Pressure         (GPa) =       0.726356          0.636486
  ** Time :            4.93000 ps :
     Properties:                   Instantaneous       Averaged
       Kinetic energy    (eV) =       0.406936          0.407139
       Potential energy  (eV) =    -428.068961       -428.044059
       Total energy      (eV) =    -427.662025       -427.636920
       Temperature       (K)  =      49.971351         49.996297
       Pressure         (GPa) =       0.226760          0.636070
  ** Time :            4.93500 ps :
     Properties:                   Instantaneous       Averaged
       Kinetic energy    (eV) =       0.406729          0.407139
       Potential energy  (eV) =    -428.067946       -428.044083
       Total energy      (eV) =    -427.661216       -427.636944
       Temperature       (K)  =      49.945974         49.996246
       Pressure         (GPa) =       0.578583          0.636012
  ** Time :            4.94000 ps :
     Properties:                   Instantaneous       Averaged
       Kinetic energy    (eV) =       0.406576          0.407138
       Potential energy  (eV) =    -428.035227       -428.044074
       Total energy      (eV) =    -427.628651       -427.636936
       Temperature       (K)  =      49.927187         49.996176
       Pressure         (GPa) =       0.191188          0.635562
  ** Time :            4.94500 ps :
     Properties:                   Instantaneous       Averaged
       Kinetic energy    (eV) =       0.407690          0.407139
       Potential energy  (eV) =    -428.046068       -428.044076
       Total energy      (eV) =    -427.638378       -427.636937
       Temperature       (K)  =      50.063972         49.996245
       Pressure         (GPa) =       0.325841          0.635249
  ** Time :            4.95000 ps :
     Properties:                   Instantaneous       Averaged
       Kinetic energy    (eV) =       0.406670          0.407138
       Potential energy  (eV) =    -428.060763       -428.044093
       Total energy      (eV) =    -427.654093       -427.636955
       Temperature       (K)  =      49.938675         49.996187
       Pressure         (GPa) =      -0.115194          0.634491
  ** Time :            4.95500 ps :
     Properties:                   Instantaneous       Averaged
       Kinetic energy    (eV) =       0.406725          0.407138
       Potential energy  (eV) =    -427.957644       -428.044006
       Total energy      (eV) =    -427.550919       -427.636868
       Temperature       (K)  =      49.945420         49.996135
       Pressure         (GPa) =       0.793972          0.634651
  ** Time :            4.96000 ps :
     Properties:                   Instantaneous       Averaged
       Kinetic energy    (eV) =       0.407698          0.407139
       Potential energy  (eV) =    -427.961653       -428.043923
       Total energy      (eV) =    -427.553955       -427.636784
       Temperature       (K)  =      50.064890         49.996205
       Pressure         (GPa) =       0.811048          0.634829
  ** Time :            4.96500 ps :
     Properties:                   Instantaneous       Averaged
       Kinetic energy    (eV) =       0.407622          0.407139
       Potential energy  (eV) =    -428.028934       -428.043908
       Total energy      (eV) =    -427.621312       -427.636769
       Temperature       (K)  =      50.055574         49.996264
       Pressure         (GPa) =       0.550515          0.634744
  ** Time :            4.97000 ps :
     Properties:                   Instantaneous       Averaged
       Kinetic energy    (eV) =       0.407325          0.407139
       Potential energy  (eV) =    -428.056075       -428.043920
       Total energy      (eV) =    -427.648751       -427.636781
       Temperature       (K)  =      50.019046         49.996287
       Pressure         (GPa) =       1.124263          0.635237
  ** Time :            4.97500 ps :
     Properties:                   Instantaneous       Averaged
       Kinetic energy    (eV) =       0.407360          0.407139
       Potential energy  (eV) =    -428.110778       -428.043987
       Total energy      (eV) =    -427.703418       -427.636848
       Temperature       (K)  =      50.023380         49.996315
       Pressure         (GPa) =       0.905471          0.635508
  ** Time :            4.98000 ps :
     Properties:                   Instantaneous       Averaged
       Kinetic energy    (eV) =       0.406738          0.407139
       Potential energy  (eV) =    -428.114028       -428.044058
       Total energy      (eV) =    -427.707291       -427.636919
       Temperature       (K)  =      49.946967         49.996265
       Pressure         (GPa) =       1.055760          0.635930
  ** Time :            4.98500 ps :
     Properties:                   Instantaneous       Averaged
       Kinetic energy    (eV) =       0.406453          0.407138
       Potential energy  (eV) =    -428.037950       -428.044051
       Total energy      (eV) =    -427.631497       -427.636913
       Temperature       (K)  =      49.912026         49.996181
       Pressure         (GPa) =       1.082559          0.636378
  ** Time :            4.99000 ps :
     Properties:                   Instantaneous       Averaged
       Kinetic energy    (eV) =       0.407836          0.407139
       Potential energy  (eV) =    -428.024355       -428.044032
       Total energy      (eV) =    -427.616519       -427.636893
       Temperature       (K)  =      50.081900         49.996267
       Pressure         (GPa) =       0.395003          0.636136
  ** Time :            4.99500 ps :
     Properties:                   Instantaneous       Averaged
       Kinetic energy    (eV) =       0.407206          0.407139
       Potential energy  (eV) =    -428.071572       -428.044059
       Total energy      (eV) =    -427.664366       -427.636920
       Temperature       (K)  =      50.004511         49.996275
       Pressure         (GPa) =       0.867091          0.636368
  ** Time :            5.00000 ps :
     Properties:                   Instantaneous       Averaged
       Kinetic energy    (eV) =       0.407004          0.407139
       Potential energy  (eV) =    -428.061765       -428.044077
       Total energy      (eV) =    -427.654761       -427.636938
       Temperature       (K)  =      49.979662         49.996258
       Pressure         (GPa) =      -0.153488          0.635578

  Peak dynamic memory used =       1.98 MB 


  Timing analysis for GULP :

--------------------------------------------------------------------------------
  Task / Subroutine                                          Time (Seconds)
--------------------------------------------------------------------------------
  Calculation of Brenner energy and derivatives                 175.0914
  Calculation of matrix inversion                                 0.0859
  Molecular dynamics - update of geometry                         0.5734
  Molecular dynamics - predictor                                  0.0589
  Molecular dynamics - corrector                                  0.5568
  Molecular dynamics - velocity correction                        0.3393
--------------------------------------------------------------------------------
  Total CPU time                                                177.4525
--------------------------------------------------------------------------------


  CIF file written as dm.cif


  Job Finished at 23:34.06 10th August     2020                               

