********************************************************************************
*                       GENERAL UTILITY LATTICE PROGRAM                        *
*                                 Julian Gale                                  *
*                       Curtin Institute for Computation                       *
*                    School of Molecular and Life Sciences                     *
*                    Curtin University, Western Australia                      *
********************************************************************************
* Version = 5.2.0 * Last modified =  17th December 2019                        *
********************************************************************************
*  optimise     - perform optimisation run                                     *
*  conp         - constant pressure calculation                                *
*  isotropic    - only isotropic cell expansion to be allowed                  *
*  property     - calculate properties for final geometry                      *
*  phonon       - calculate phonons for final geometry                         *
*  rfo          - optimisation step to be determined by RFO method             *
********************************************************************************
* ASE calculation                                                              *
********************************************************************************


  Job Started  at 14:08.25 31st July       2020                               

  Number of CPUs =     1


  Total number of configurations input =      1

********************************************************************************
*  Input for Configuration =   1                                               *
********************************************************************************

  Formula = C64                                                         

  Number of irreducible atoms/shells =      64


  Total number atoms/shells =      64

  Dimensionality = 3               :  Bulk   



  Cartesian lattice vectors (Angstroms) :

        7.646500    0.000000    0.000000
        0.303481    7.369654    0.000000
       -0.243117    0.207059    7.556755

  Cell parameters (Angstroms/Degrees):

  a =       7.6465    alpha =  88.5084
  b =       7.3759    beta  =  91.8420
  c =       7.5635    gamma =  87.6419

  Initial cell volume =         425.838731 Angs**3

  Temperature of configuration =   0.00     K 

  Pressure of configuration =         0.000 GPa 

  Fractional coordinates of asymmetric unit :

--------------------------------------------------------------------------------
   No.  Atomic       x           y          z         Charge      Occupancy
        Label      (Frac)      (Frac)     (Frac)        (e)         (Frac)  
--------------------------------------------------------------------------------
      1 C     c    0.035780    0.526170    0.339890     0.00000    1.000000    
      2 C     c    0.231970 *  0.059590 *  0.071060 *   0.00000    1.000000    
      3 C     c    0.087720 *  0.370090 *  0.241490 *   0.00000    1.000000    
      4 C     c    0.851870 *  0.907270 *  0.419000 *   0.00000    1.000000    
      5 C     c    0.440760 *  0.869150 *  0.947660 *   0.00000    1.000000    
      6 C     c    0.792670 *  0.423730 *  0.214990 *   0.00000    1.000000    
      7 C     c    0.898970 *  0.591570 *  0.683210 *   0.00000    1.000000    
      8 C     c    0.790650 *  0.511450 *  0.549260 *   0.00000    1.000000    
      9 C     c    0.110150 *  0.341780 *  0.597370 *   0.00000    1.000000    
     10 C     c    0.372640 *  0.716100 *  0.089360 *   0.00000    1.000000    
     11 C     c    0.863810 *  0.203620 *  0.707400 *   0.00000    1.000000    
     12 C     c    0.546610 *  0.855390 *  0.511720 *   0.00000    1.000000    
     13 C     c    0.401610 *  0.198190 *  0.586230 *   0.00000    1.000000    
     14 C     c    0.173440 *  0.938870 *  0.766710 *   0.00000    1.000000    
     15 C     c    0.502620 *  0.558790 *  0.367600 *   0.00000    1.000000    
     16 C     c    0.950230 *  0.896120 *  0.082250 *   0.00000    1.000000    
     17 C     c    0.122030 *  0.773310 *  0.834570 *   0.00000    1.000000    
     18 C     c    0.276230 *  0.680200 *  0.564150 *   0.00000    1.000000    
     19 C     c    0.708230 *  0.342250 *  0.640880 *   0.00000    1.000000    
     20 C     c    0.020190 *  0.194820 *  0.241320 *   0.00000    1.000000    
     21 C     c    0.912440 *  0.112610 *  0.391800 *   0.00000    1.000000    
     22 C     c    0.836130 *  0.563250 *  0.362640 *   0.00000    1.000000    
     23 C     c    0.437370 *  0.784300 *  0.637040 *   0.00000    1.000000    
     24 C     c    0.767920 *  0.234530 *  0.291490 *   0.00000    1.000000    
     25 C     c    0.646000 *  0.116550 *  0.977620 *   0.00000    1.000000    
     26 C     c    0.488580 *  0.550770 *  0.049590 *   0.00000    1.000000    
     27 C     c    0.579440 *  0.240190 *  0.526010 *   0.00000    1.000000    
     28 C     c    0.600510 *  0.944470 *  0.073830 *   0.00000    1.000000    
     29 C     c    0.458310 *  0.867330 *  0.209990 *   0.00000    1.000000    
     30 C     c    0.306760 *  0.019050 *  0.882290 *   0.00000    1.000000    
     31 C     c    0.785540 *  0.064970 *  0.850080 *   0.00000    1.000000    
     32 C     c    0.844430 *  0.723630 *  0.803200 *   0.00000    1.000000    
     33 C     c    0.280210 *  0.357990 *  0.529710 *   0.00000    1.000000    
     34 C     c    0.194840 *  0.645630 *  0.150800 *   0.00000    1.000000    
     35 C     c    0.057620 *  0.463090 *  0.743160 *   0.00000    1.000000    
     36 C     c    0.302300 *  0.056180 *  0.470650 *   0.00000    1.000000    
     37 C     c    0.157910 *  0.690770 *  0.368550 *   0.00000    1.000000    
     38 C     c    0.514150 *  0.268430 *  0.908360 *   0.00000    1.000000    
     39 C     c    0.030840 *  0.080750 *  0.074740 *   0.00000    1.000000    
     40 C     c    0.732660 *  0.896780 *  0.757720 *   0.00000    1.000000    
     41 C     c    0.359140 *  0.513730 *  0.471230 *   0.00000    1.000000    
     42 C     c    0.052800 *  0.860090 *  0.453260 *   0.00000    1.000000    
     43 C     c    0.034340 *  0.387780 *  0.933810 *   0.00000    1.000000    
     44 C     c    0.199370 *  0.428940 *  0.079270 *   0.00000    1.000000    
     45 C     c    0.161530 *  0.636470 *  0.721810 *   0.00000    1.000000    
     46 C     c    0.879560 *  0.477970 *  0.048760 *   0.00000    1.000000    
     47 C     c    0.768890 *  0.816100 *  0.112090 *   0.00000    1.000000    
     48 C     c    0.958460 *  0.189850 *  0.914700 *   0.00000    1.000000    
     49 C     c    0.760800 *  0.754790 *  0.307470 *   0.00000    1.000000    
     50 C     c    0.784590 *  0.652710 *  0.978910 *   0.00000    1.000000    
     51 C     c    0.140530 *  0.000090 *  0.571890 *   0.00000    1.000000    
     52 C     c    0.449370 *  0.214680 *  0.230070 *   0.00000    1.000000    
     53 C     c    0.400020 *  0.347640 *  0.069400 *   0.00000    1.000000    
     54 C     c    0.342650 *  0.039810 *  0.261520 *   0.00000    1.000000    
     55 C     c    0.597740 *  0.220740 *  0.347310 *   0.00000    1.000000    
     56 C     c    0.392460 *  0.167530 *  0.785310 *   0.00000    1.000000    
     57 C     c    0.607030 *  0.414080 *  0.806800 *   0.00000    1.000000    
     58 C     c    0.707830 *  0.922960 *  0.563840 *   0.00000    1.000000    
     59 C     c    0.071290 *  0.759000 *  0.017020 *   0.00000    1.000000    
     60 C     c    0.579880 *  0.466130 *  0.219820 *   0.00000    1.000000    
     61 C     c    0.562450 *  0.758600 *  0.350280 *   0.00000    1.000000    
     62 C     c    0.000230 *  0.173350 *  0.571460 *   0.00000    1.000000    
     63 C     c    0.605650 *  0.592790 *  0.898540 *   0.00000    1.000000    
     64 C     c    0.551540 *  0.779310 *  0.808290 *   0.00000    1.000000    
--------------------------------------------------------------------------------


  Constraints : 

--------------------------------------------------------------------------------
  Constraint no.      Unconstrained     Constrained    Coefficient    Offset
                         Variable         Variable
--------------------------------------------------------------------------------
           1              Strain 1        Strain 2       1.00000      0.0000
           2              Strain 1        Strain 3       1.00000      0.0000
--------------------------------------------------------------------------------

  Brillouin zone sampling points :

--------------------------------------------------------------------------------
  Point number          x          y          z            Weight
--------------------------------------------------------------------------------
        1           0.000000   0.000000   0.000000     1.00000000
--------------------------------------------------------------------------------


********************************************************************************
*  General input information                                                   *
********************************************************************************

  Species output for all configurations : 

--------------------------------------------------------------------------------
  Species    Type    Atomic    Atomic    Charge       Radii (Angs)     Library
                     Number     Mass       (e)     Cova   Ionic  VDW   Symbol
--------------------------------------------------------------------------------
    C        Core        6      12.01   0.000000   0.770  0.000  1.530          
--------------------------------------------------------------------------------


  Lattice summation method               =    Ewald          (3-D)
                                         =    Parry          (2-D)
                                         =    Saunders et al (1-D)
  Accuracy factor for lattice sums       =   12.000


  Analytic derivatives to be used

  Time limit = Infinity

  Maximum range for interatomic potentials =    100000.000000 Angstroms

  Brenner et al 2002 potential to be used with explicit splines for P


********************************************************************************
*  Output for configuration   1                                                *
********************************************************************************


  Components of energy : 

--------------------------------------------------------------------------------
  Interatomic potentials     =           0.00000000 eV    
  Brenner potentials         =        -423.85806480 eV    
  Monopole - monopole (real) =           0.00000000 eV    
  Monopole - monopole (recip)=           0.00000000 eV    
  Monopole - monopole (total)=           0.00000000 eV    
--------------------------------------------------------------------------------
  Total lattice energy       =        -423.85806480 eV    
--------------------------------------------------------------------------------
  Total lattice energy       =          -40895.8240 kJ/(mole unit cells)
--------------------------------------------------------------------------------


  Number of variables =      190

  Maximum number of calculations  =          2000
  Maximum Hessian update interval =            10
  Maximum step size               =   1.000000000
  Maximum parameter tolerance     =   0.000010000
  Maximum function  tolerance     =   0.000010000
  Maximum gradient  tolerance     =   0.001000000
  Maximum gradient  component     =   0.010000000

  Symmetry not applied to optimisation

  Cell parameters to be optimised using strains

  RFO method to be used

  DFP hessian update to be used

  Lower half triangular hessian to be used

  Start of bulk optimisation :

  Cycle:      0 Energy:      -423.858065  Gnorm:      0.270206  CPU:    0.410
  ** Hessian has required structure
  Cycle:      1 Energy:      -424.219402  Gnorm:      0.317455  CPU:    0.644
  ** Hessian has required structure
  Cycle:      2 Energy:      -424.295656  Gnorm:      0.077332  CPU:    0.793
  ** Hessian has required structure
  Cycle:      3 Energy:      -424.317603  Gnorm:      0.004630  CPU:    0.923
  ** Hessian has required structure
  Cycle:      4 Energy:      -424.317782  Gnorm:      0.001057  CPU:    1.047
  ** Hessian has required structure
  Cycle:      5 Energy:      -424.317791  Gnorm:      0.000195  CPU:    1.173
  ** Hessian has required structure


  **** Optimisation achieved ****


  Final energy =    -424.31779065 eV
  Final Gnorm  =       0.00003424

  Components of energy : 

--------------------------------------------------------------------------------
  Interatomic potentials     =           0.00000000 eV    
  Brenner potentials         =        -424.31779065 eV    
  Monopole - monopole (real) =           0.00000000 eV    
  Monopole - monopole (recip)=           0.00000000 eV    
  Monopole - monopole (total)=           0.00000000 eV    
--------------------------------------------------------------------------------
  Total lattice energy       =        -424.31779065 eV    
--------------------------------------------------------------------------------
  Total lattice energy       =          -40940.1805 kJ/(mole unit cells)
--------------------------------------------------------------------------------

  Final fractional coordinates of atoms :

--------------------------------------------------------------------------------
   No.  Atomic        x           y          z          Radius
        Label       (Frac)      (Frac)     (Frac)       (Angs) 
--------------------------------------------------------------------------------
     1  C     c     0.035780    0.526170    0.339890    0.000000
     2  C     c     0.229587    0.062467    0.070678    0.000000
     3  C     c     0.086744    0.372583    0.241543    0.000000
     4  C     c     0.849891    0.908358    0.422459    0.000000
     5  C     c     0.441278    0.873719    0.947590    0.000000
     6  C     c     0.787439    0.429527    0.218620    0.000000
     7  C     c     0.901962    0.595109    0.684442    0.000000
     8  C     c     0.792252    0.510993    0.553955    0.000000
     9  C     c     0.109326    0.341374    0.597450    0.000000
    10  C     c     0.368562    0.720101    0.087269    0.000000
    11  C     c     0.859237    0.209766    0.708266    0.000000
    12  C     c     0.544101    0.861312    0.508884    0.000000
    13  C     c     0.399812    0.199971    0.585867    0.000000
    14  C     c     0.169575    0.946442    0.765175    0.000000
    15  C     c     0.498498    0.562484    0.365892    0.000000
    16  C     c     0.950814    0.898422    0.079276    0.000000
    17  C     c     0.116992    0.779030    0.831303    0.000000
    18  C     c     0.273574    0.686227    0.563678    0.000000
    19  C     c     0.707323    0.344638    0.642410    0.000000
    20  C     c     0.019612    0.197340    0.239354    0.000000
    21  C     c     0.914964    0.113767    0.392490    0.000000
    22  C     c     0.837625    0.564857    0.366021    0.000000
    23  C     c     0.432978    0.789653    0.634096    0.000000
    24  C     c     0.769265    0.240054    0.292992    0.000000
    25  C     c     0.643933    0.119913    0.979495    0.000000
    26  C     c     0.485731    0.554493    0.047943    0.000000
    27  C     c     0.577202    0.241412    0.526414    0.000000
    28  C     c     0.601416    0.945079    0.073869    0.000000
    29  C     c     0.456297    0.873522    0.209867    0.000000
    30  C     c     0.305052    0.022217    0.885075    0.000000
    31  C     c     0.783879    0.070023    0.850188    0.000000
    32  C     c     0.845145    0.726130    0.803667    0.000000
    33  C     c     0.277245    0.359646    0.526006    0.000000
    34  C     c     0.192242    0.651363    0.147018    0.000000
    35  C     c     0.059805    0.466192    0.745157    0.000000
    36  C     c     0.299400    0.059082    0.468832    0.000000
    37  C     c     0.158120    0.690642    0.365300    0.000000
    38  C     c     0.510807    0.270954    0.909306    0.000000
    39  C     c     0.030257    0.084693    0.074759    0.000000
    40  C     c     0.731348    0.898160    0.760242    0.000000
    41  C     c     0.354530    0.518852    0.467701    0.000000
    42  C     c     0.050527    0.856684    0.457027    0.000000
    43  C     c     0.032706    0.391021    0.935901    0.000000
    44  C     c     0.198346    0.432401    0.080034    0.000000
    45  C     c     0.156632    0.641121    0.718436    0.000000
    46  C     c     0.878179    0.482021    0.050854    0.000000
    47  C     c     0.770672    0.816055    0.111883    0.000000
    48  C     c     0.956567    0.195364    0.913818    0.000000
    49  C     c     0.760577    0.757833    0.309070    0.000000
    50  C     c     0.784464    0.652368    0.979353    0.000000
    51  C     c     0.134859    0.001608    0.567359    0.000000
    52  C     c     0.449342    0.221955    0.230521    0.000000
    53  C     c     0.398791    0.353125    0.068817    0.000000
    54  C     c     0.340679    0.047913    0.256935    0.000000
    55  C     c     0.598360    0.221422    0.346803    0.000000
    56  C     c     0.391289    0.170980    0.786623    0.000000
    57  C     c     0.608193    0.415168    0.804462    0.000000
    58  C     c     0.706982    0.925379    0.564055    0.000000
    59  C     c     0.070548    0.762919    0.012517    0.000000
    60  C     c     0.578954    0.471411    0.218931    0.000000
    61  C     c     0.558468    0.760516    0.348427    0.000000
    62  C     c     0.998684    0.176397    0.572624    0.000000
    63  C     c     0.602800    0.596610    0.896231    0.000000
    64  C     c     0.545763    0.785698    0.804830    0.000000
--------------------------------------------------------------------------------

  Final Cartesian lattice vectors (Angstroms) :

        7.644099    0.000000    0.000000
        0.303386    7.367339    0.000000
       -0.243040    0.206994    7.554382


  Final cell parameters and derivatives :

--------------------------------------------------------------------------------
       a            7.644099 Angstrom     dE/de1(xx)     0.001682 eV/strain
       b            7.373583 Angstrom     dE/de2(yy)     0.000000 eV/strain
       c            7.561125 Angstrom     dE/de3(zz)     0.000000 eV/strain
       alpha       88.508400 Degrees      dE/de4(yz)     0.000000 eV/strain
       beta        91.842000 Degrees      dE/de5(xz)     0.000000 eV/strain
       gamma       87.641900 Degrees      dE/de6(xy)     0.000000 eV/strain
--------------------------------------------------------------------------------

  Primitive cell volume =           425.437634 Angs**3

  Density of cell =      3.000151 g/cm**3

  Non-primitive cell volume =           425.437634 Angs**3


  Final internal derivatives :

--------------------------------------------------------------------------------
   No.  Atomic          a             b             c           Radius
        Label          (eV)          (eV)          (eV)        (eV/Angs)
--------------------------------------------------------------------------------
      1 C     c       0.000000      0.000000      0.000000      0.000000
      2 C     c      -0.000115     -0.000114     -0.000015      0.000000
      3 C     c      -0.000111      0.000122      0.000061      0.000000
      4 C     c      -0.000065      0.000000      0.000172      0.000000
      5 C     c      -0.000306      0.000132     -0.000573      0.000000
      6 C     c      -0.000092      0.000068      0.000530      0.000000
      7 C     c      -0.003338     -0.000481      0.000861      0.000000
      8 C     c      -0.000048      0.000277     -0.000720      0.000000
      9 C     c       0.000016     -0.000511     -0.000384      0.000000
     10 C     c      -0.000431     -0.000380     -0.000026      0.000000
     11 C     c       0.000288     -0.000401      0.000602      0.000000
     12 C     c       0.000164      0.000290     -0.000218      0.000000
     13 C     c      -0.000066     -0.000079     -0.000065      0.000000
     14 C     c       0.000042     -0.000441     -0.000462      0.000000
     15 C     c       0.000073      0.000060     -0.000103      0.000000
     16 C     c       0.000033     -0.000106      0.000150      0.000000
     17 C     c      -0.000137     -0.000354     -0.000206      0.000000
     18 C     c      -0.000090     -0.000224     -0.000264      0.000000
     19 C     c      -0.000312      0.000732      0.000784      0.000000
     20 C     c      -0.000618     -0.000138     -0.000087      0.000000
     21 C     c       0.000221      0.000359      0.000158      0.000000
     22 C     c      -0.000275     -0.000685     -0.000417      0.000000
     23 C     c      -0.000246      0.000183      0.000445      0.000000
     24 C     c       0.000278     -0.000098     -0.000011      0.000000
     25 C     c      -0.000118     -0.000023     -0.000046      0.000000
     26 C     c      -0.000073     -0.000024     -0.000043      0.000000
     27 C     c      -0.000313     -0.000217      0.000007      0.000000
     28 C     c      -0.000027      0.000113     -0.000068      0.000000
     29 C     c      -0.000066      0.000378      0.000480      0.000000
     30 C     c       0.000197      0.000222      0.000271      0.000000
     31 C     c       0.000064      0.000326      0.000070      0.000000
     32 C     c       0.000492     -0.000393     -0.000636      0.000000
     33 C     c      -0.000116     -0.000437      0.000250      0.000000
     34 C     c       0.000190      0.000699     -0.000460      0.000000
     35 C     c       0.000049      0.000663      0.000237      0.000000
     36 C     c       0.000380      0.000485      0.000162      0.000000
     37 C     c      -0.000162     -0.000461     -0.000381      0.000000
     38 C     c      -0.000308     -0.000328      0.000311      0.000000
     39 C     c       0.000197      0.000089      0.000182      0.000000
     40 C     c       0.000120     -0.000296      0.000047      0.000000
     41 C     c       0.000074      0.000612      0.000047      0.000000
     42 C     c      -0.000364      0.000229      0.000471      0.000000
     43 C     c      -0.000141     -0.000067     -0.000074      0.000000
     44 C     c      -0.000025     -0.000264      0.000185      0.000000
     45 C     c       0.002857      0.000725      0.000897      0.000000
     46 C     c       0.000163     -0.000115     -0.000179      0.000000
     47 C     c       0.000052      0.000076     -0.000038      0.000000
     48 C     c      -0.000102      0.000111     -0.000234      0.000000
     49 C     c       0.000360      0.000328      0.000121      0.000000
     50 C     c       0.000210      0.000051      0.000014      0.000000
     51 C     c      -0.000424     -0.000052      0.000488      0.000000
     52 C     c       0.000457      0.000078      0.000346      0.000000
     53 C     c      -0.000128     -0.000057      0.000113      0.000000
     54 C     c      -0.000122      0.000078     -0.000356      0.000000
     55 C     c       0.000159      0.000114     -0.000416      0.000000
     56 C     c       0.000180      0.000028      0.000103      0.000000
     57 C     c       0.000426      0.000097     -0.000742      0.000000
     58 C     c       0.000076      0.000014     -0.000148      0.000000
     59 C     c       0.000145      0.000100     -0.000404      0.000000
     60 C     c       0.000401     -0.000051      0.000126      0.000000
     61 C     c      -0.000973     -0.000310     -0.000142      0.000000
     62 C     c       0.000424     -0.000274     -0.001065      0.000000
     63 C     c      -0.000210     -0.000383      0.000297      0.000000
     64 C     c       0.000550      0.000097     -0.000167      0.000000
--------------------------------------------------------------------------------
  Maximum abs         0.003338      0.000732      0.001065      0.000000
--------------------------------------------------------------------------------



  Elastic Constant Matrix: (Units=GPa)

-------------------------------------------------------------------------------
  Indices      1         2         3         4         5         6    
-------------------------------------------------------------------------------
       1    496.4122  175.7132  205.6886   18.5236  -56.0898   51.0682
       2    175.7132  491.2164  119.0777    1.2094   11.7301   75.3583
       3    205.6886  119.0777  626.5889    2.5821  -50.1210  -12.4229
       4     18.5236    1.2094    2.5821  163.4315   21.8097  -14.4922
       5    -56.0898   11.7301  -50.1210   21.8097  189.4530   11.0614
       6     51.0682   75.3583  -12.4229  -14.4922   11.0614  171.4284
-------------------------------------------------------------------------------


  Elastic Compliance Matrix: (Units=1/GPa)

-------------------------------------------------------------------------------
  Indices      1         2         3         4         5         6    
-------------------------------------------------------------------------------
       1    0.002732 -0.000725 -0.000709 -0.000450  0.000755 -0.000633
       2   -0.000725  0.002509 -0.000288  0.000044 -0.000400 -0.000878
       3   -0.000709 -0.000288  0.001915  0.000056  0.000281  0.000464
       4   -0.000450  0.000044  0.000056  0.006351 -0.000894  0.000714
       5    0.000755 -0.000400  0.000281 -0.000894  0.005732 -0.000474
       6   -0.000633 -0.000878  0.000464  0.000714 -0.000474  0.006533
-------------------------------------------------------------------------------

  Mechanical properties :

-------------------------------------------------------------------------------
  Convention :                    Reuss         Voigt         Hill
-------------------------------------------------------------------------------
  Bulk  Modulus (GPa)     =     269.49450     290.57517     280.03484
  Shear Modulus (GPa)     =     164.17666     179.11177     171.64422
-------------------------------------------------------------------------------
  Velocity S-wave (km/s)  =       7.39749       7.72664       7.56385
  Velocity P-wave (km/s)  =      12.75895      13.28363      13.02393
-------------------------------------------------------------------------------
  Compressibility (1/GPa) =    0.00371065
-------------------------------------------------------------------------------
  Stress axis :                     x             y             z
-------------------------------------------------------------------------------
  Youngs Moduli (GPa)     =     365.98575     398.51970     522.17264
-------------------------------------------------------------------------------
  Poissons Ratio (x)      =                     0.28899       0.37045
  Poissons Ratio (y)      =       0.26540                     0.15060
  Poissons Ratio (z)      =       0.25965       0.11494
-------------------------------------------------------------------------------


  Piezoelectric Strain Matrix: (Units=C/m**2)

-------------------------------------------------------------------------------
  Indices      1         2         3         4         5         6    
-------------------------------------------------------------------------------
       x    -0.00000  -0.00000  -0.00000  -0.00000  -0.00000  -0.00000
       y    -0.00000  -0.00000  -0.00000  -0.00000  -0.00000  -0.00000
       z    -0.00000  -0.00000  -0.00000  -0.00000  -0.00000  -0.00000
-------------------------------------------------------------------------------


  Piezoelectric Stress Matrix: (Units=10**-11 C/N)

-------------------------------------------------------------------------------
  Indices      1         2         3         4         5         6    
-------------------------------------------------------------------------------
       x     0.00000   0.00000   0.00000   0.00000   0.00000   0.00000
       y     0.00000   0.00000   0.00000   0.00000   0.00000   0.00000
       z     0.00000   0.00000   0.00000   0.00000   0.00000   0.00000
-------------------------------------------------------------------------------


  Static dielectric constant tensor : 

-------------------------------------------------------------------------------
              x         y         z
-------------------------------------------------------------------------------
       x     1.00000   0.00000   0.00000
       y     0.00000   1.00000   0.00000
       z     0.00000   0.00000   1.00000
--------------------------------------------------------------------------------

  Static refractive indices : 

-------------------------------------------------------------------------------
    1 =    1.00000      2 =    1.00000      3 =    1.00000
-------------------------------------------------------------------------------


  Phonon Calculation : 

  Number of k points for this configuration =        1

--------------------------------------------------------------------------------
  K point      1 =   0.000000  0.000000  0.000000  Weight =    1.000
--------------------------------------------------------------------------------

  Frequencies (cm-1) [NB: Negative implies an imaginary mode]:

   -0.00   -0.00    0.00  199.63  212.92  239.46  258.19  272.09  278.97
  285.52  294.80  308.36  311.45  328.69  336.72  341.08  344.15  354.25
  365.92  371.08  378.74  388.68  395.24  402.33  415.91  418.10  433.16
  437.37  449.16  450.51  457.46  470.45  475.82  487.65  499.83  501.11
  509.18  510.14  523.03  526.15  529.91  538.87  540.28  555.01  559.47
  564.15  569.83  583.67  590.06  600.07  606.61  609.00  617.93  622.62
  626.12  632.52  637.46  651.58  656.12  665.05  667.52  674.68  681.05
  694.17  699.18  707.59  710.15  715.27  725.20  730.29  732.62  748.99
  751.17  758.33  763.96  772.81  774.82  783.31  791.67  797.19  804.53
  811.09  816.82  827.75  831.47  837.71  846.74  852.89  859.73  876.68
  885.49  890.45  896.31  904.68  909.08  911.18  914.00  937.68  944.50
  952.32  963.67  973.91  988.96  999.03 1003.08 1006.18 1010.12 1025.59
 1033.83 1040.79 1042.43 1045.77 1051.15 1066.88 1067.81 1076.30 1080.50
 1090.41 1105.48 1112.55 1121.53 1134.20 1140.30 1147.12 1152.78 1160.97
 1163.97 1170.27 1179.07 1184.24 1190.12 1200.78 1203.06 1206.78 1225.82
 1227.51 1241.68 1249.41 1256.12 1259.56 1263.55 1272.48 1289.61 1292.69
 1298.52 1306.55 1312.30 1313.17 1321.26 1325.93 1334.50 1344.90 1355.93
 1371.35 1378.63 1387.25 1389.66 1405.44 1414.01 1424.56 1429.56 1431.89
 1447.23 1463.48 1467.53 1480.29 1488.98 1497.66 1506.82 1522.49 1531.96
 1537.57 1565.51 1593.35 1624.30 1651.71 1666.71 1674.07 1694.30 1704.27
 1725.20 1738.54 1811.63 1824.40 1919.98 2001.48 2046.60 2142.66 2199.95
 2730.99 2812.67 2917.42


--------------------------------------------------------------------------------
  Phonon properties (per mole of unit cells): Temperature =      0.000 K
--------------------------------------------------------------------------------
  Zero point energy            =       11.569901 eV
--------------------------------------------------------------------------------

  Phonon density of states : 

--------------------------------------------------------------------------------
 Frequency (cm-1) Density of States                                             
--------------------------------------------------------------------------------
    0.00000 |*******                                                       0.005
   45.58472 |                                                              0.000
   91.16943 |                                                              0.000
  136.75415 |                                                              0.000
  182.33886 |***************                                               0.011
  227.92358 |**********************                                        0.016
  273.50830 |*************************************                         0.026
  319.09301 |*************************************                         0.026
  364.67773 |*********************************************                 0.032
  410.26244 |*********************************************                 0.032
  455.84716 |*********************************************                 0.032
  501.43188 |****************************************************          0.037
  547.01659 |*********************************************                 0.032
  592.60131 |************************************************************  0.042
  638.18602 |*********************************************                 0.032
  683.77074 |*********************************************                 0.032
  729.35546 |************************************************************  0.042
  774.94017 |*********************************************                 0.032
  820.52489 |*********************************************                 0.032
  866.10960 |****************************************************          0.037
  911.69432 |******************************                                0.021
  957.27904 |******************************                                0.021
 1002.86375 |************************************************************  0.042
 1048.44847 |*********************************************                 0.032
 1094.03318 |******************************                                0.021
 1139.61790 |************************************************************  0.042
 1185.20261 |*********************************************                 0.032
 1230.78733 |*********************************************                 0.032
 1276.37205 |****************************************************          0.037
 1321.95676 |******************************                                0.021
 1367.54148 |*************************************                         0.026
 1413.12619 |*************************************                         0.026
 1458.71091 |*************************************                         0.026
 1504.29563 |******************************                                0.021
 1549.88034 |***************                                               0.011
 1595.46506 |*******                                                       0.005
 1641.04977 |**********************                                        0.016
 1686.63449 |**********************                                        0.016
 1732.21921 |*******                                                       0.005
 1777.80392 |*******                                                       0.005
 1823.38864 |*******                                                       0.005
 1868.97335 |                                                              0.000
 1914.55807 |*******                                                       0.005
 1960.14279 |*******                                                       0.005
 2005.72750 |*******                                                       0.005
 2051.31222 |                                                              0.000
 2096.89693 |                                                              0.000
 2142.48165 |*******                                                       0.005
 2188.06637 |*******                                                       0.005
 2233.65108 |                                                              0.000
 2279.23580 |                                                              0.000
 2324.82051 |                                                              0.000
 2370.40523 |                                                              0.000
 2415.98995 |                                                              0.000
 2461.57466 |                                                              0.000
 2507.15938 |                                                              0.000
 2552.74409 |                                                              0.000
 2598.32881 |                                                              0.000
 2643.91353 |                                                              0.000
 2689.49824 |*******                                                       0.005
 2735.08296 |                                                              0.000
 2780.66767 |*******                                                       0.005
 2826.25239 |                                                              0.000
 2871.83711 |*******                                                       0.005
--------------------------------------------------------------------------------



  Time to end of optimisation =       2.1672 seconds


  Peak dynamic memory used =       3.35 MB 


  Timing analysis for GULP :

--------------------------------------------------------------------------------
  Task / Subroutine                                          Time (Seconds)
--------------------------------------------------------------------------------
  Calculation of real space energy and derivatives                0.0002
  Calculation of Brenner energy and derivatives                   1.2542
  Calculation of phonons                                          0.2833
  Calculation and manipulation of Hessian matrix                  0.7114
--------------------------------------------------------------------------------
  Total CPU time                                                  2.1673
--------------------------------------------------------------------------------


  CIF file written as rfo.cif


  Job Finished at 14:08.27 31st July       2020                               

