********************************************************************************
*                       GENERAL UTILITY LATTICE PROGRAM                        *
*                                 Julian Gale                                  *
*                       Curtin Institute for Computation                       *
*                    School of Molecular and Life Sciences                     *
*                    Curtin University, Western Australia                      *
********************************************************************************
* Version = 5.2.0 * Last modified =  17th December 2019                        *
********************************************************************************
*  optimise     - perform optimisation run                                     *
*  conp         - constant pressure calculation                                *
*  isotropic    - only isotropic cell expansion to be allowed                  *
*  conjugate    - use conjugate gradients minimiser                            *
********************************************************************************
* ASE calculation                                                              *
********************************************************************************


  Job Started  at 23:31.04 10th August     2020                               

  Number of CPUs =     1


  Total number of configurations input =      1

********************************************************************************
*  Input for Configuration =   1                                               *
********************************************************************************

  Formula = C64                                                         

  Number of irreducible atoms/shells =      64


  Total number atoms/shells =      64

  Dimensionality = 3               :  Bulk   



  Cartesian lattice vectors (Angstroms) :

        7.090300    0.000000    0.000000
        0.000000    7.090300    0.000000
        0.000000    0.000000    7.090300

  Cell parameters (Angstroms/Degrees):

  a =       7.0903    alpha =  90.0000
  b =       7.0903    beta  =  90.0000
  c =       7.0903    gamma =  90.0000

  Initial cell volume =         356.446072 Angs**3

  Temperature of configuration =   0.00     K 

  Pressure of configuration =         0.000 GPa 

  Fractional coordinates of asymmetric unit :

--------------------------------------------------------------------------------
   No.  Atomic       x           y          z         Charge      Occupancy
        Label      (Frac)      (Frac)     (Frac)        (e)         (Frac)  
--------------------------------------------------------------------------------
      1 C     c    0.027883    0.588410    0.365133     0.00000    1.000000    
      2 C     c    0.252570 *  0.018109 *  0.113535 *   0.00000    1.000000    
      3 C     c    0.111124 *  0.473478 *  0.264911 *   0.00000    1.000000    
      4 C     c    0.895590 *  0.937943 *  0.435496 *   0.00000    1.000000    
      5 C     c    0.515225 *  0.919496 *  0.996643 *   0.00000    1.000000    
      6 C     c    0.829457 *  0.486199 *  0.219892 *   0.00000    1.000000    
      7 C     c    0.947393 *  0.600736 *  0.703158 *   0.00000    1.000000    
      8 C     c    0.835889 *  0.489768 *  0.543729 *   0.00000    1.000000    
      9 C     c    0.125101 *  0.365570 *  0.646658 *   0.00000    1.000000    
     10 C     c    0.443902 *  0.781970 *  0.118528 *   0.00000    1.000000    
     11 C     c    0.861557 *  0.240385 *  0.722113 *   0.00000    1.000000    
     12 C     c    0.573488 *  0.913135 *  0.555632 *   0.00000    1.000000    
     13 C     c    0.382410 *  0.244926 *  0.621850 *   0.00000    1.000000    
     14 C     c    0.249143 *  0.892318 *  0.781744 *   0.00000    1.000000    
     15 C     c    0.578523 *  0.627505 *  0.387318 *   0.00000    1.000000    
     16 C     c    0.971440 *  0.957308 *  0.086484 *   0.00000    1.000000    
     17 C     c    0.177581 *  0.740998 *  0.855831 *   0.00000    1.000000    
     18 C     c    0.347588 *  0.682566 *  0.627294 *   0.00000    1.000000    
     19 C     c    0.718869 *  0.346981 *  0.651284 *   0.00000    1.000000    
     20 C     c    0.078177 *  0.258268 *  0.294459 *   0.00000    1.000000    
     21 C     c    0.922613 *  0.131983 *  0.400434 *   0.00000    1.000000    
     22 C     c    0.868271 *  0.596223 *  0.394229 *   0.00000    1.000000    
     23 C     c    0.566549 *  0.772943 *  0.671086 *   0.00000    1.000000    
     24 C     c    0.799966 *  0.300678 *  0.338053 *   0.00000    1.000000    
     25 C     c    0.715583 *  0.193264 *  0.043369 *   0.00000    1.000000    
     26 C     c    0.481997 *  0.585067 *  0.080984 *   0.00000    1.000000    
     27 C     c    0.574447 *  0.256886 *  0.610214 *   0.00000    1.000000    
     28 C     c    0.659859 *  0.994908 *  0.057713 *   0.00000    1.000000    
     29 C     c    0.559074 *  0.979126 *  0.259636 *   0.00000    1.000000    
     30 C     c    0.354809 *  0.963499 *  0.925913 *   0.00000    1.000000    
     31 C     c    0.854449 *  0.132449 *  0.865069 *   0.00000    1.000000    
     32 C     c    0.927069 *  0.731464 *  0.812462 *   0.00000    1.000000    
     33 C     c    0.291638 *  0.397501 *  0.554137 *   0.00000    1.000000    
     34 C     c    0.280849 *  0.749023 *  0.181572 *   0.00000    1.000000    
     35 C     c    0.121165 *  0.478809 *  0.803436 *   0.00000    1.000000    
     36 C     c    0.296250 *  0.080222 *  0.502517 *   0.00000    1.000000    
     37 C     c    0.221810 *  0.723256 *  0.440743 *   0.00000    1.000000    
     38 C     c    0.525718 *  0.347461 *  0.957449 *   0.00000    1.000000    
     39 C     c    0.047530 *  0.135904 *  0.115863 *   0.00000    1.000000    
     40 C     c    0.819909 *  0.943119 *  0.812378 *   0.00000    1.000000    
     41 C     c    0.417232 *  0.555068 *  0.521233 *   0.00000    1.000000    
     42 C     c    0.082253 *  0.893996 *  0.476101 *   0.00000    1.000000    
     43 C     c    0.061648 *  0.426498 *  0.960171 *   0.00000    1.000000    
     44 C     c    0.202798 *  0.540993 *  0.116243 *   0.00000    1.000000    
     45 C     c    0.277252 *  0.551035 *  0.836199 *   0.00000    1.000000    
     46 C     c    0.906887 *  0.524999 *  0.026134 *   0.00000    1.000000    
     47 C     c    0.818315 *  0.854012 *  0.061041 *   0.00000    1.000000    
     48 C     c    0.053862 *  0.230004 *  0.934911 *   0.00000    1.000000    
     49 C     c    0.801842 *  0.831559 *  0.309789 *   0.00000    1.000000    
     50 C     c    0.794959 *  0.659366 *  0.986869 *   0.00000    1.000000    
     51 C     c    0.155692 *  0.047967 *  0.612160 *   0.00000    1.000000    
     52 C     c    0.418769 *  0.279551 *  0.238128 *   0.00000    1.000000    
     53 C     c    0.365246 *  0.431435 *  0.064990 *   0.00000    1.000000    
     54 C     c    0.337165 *  0.094270 *  0.297519 *   0.00000    1.000000    
     55 C     c    0.570977 *  0.212346 *  0.404454 *   0.00000    1.000000    
     56 C     c    0.398361 *  0.179005 *  0.824098 *   0.00000    1.000000    
     57 C     c    0.643414 *  0.448980 *  0.826792 *   0.00000    1.000000    
     58 C     c    0.781053 *  0.927831 *  0.602302 *   0.00000    1.000000    
     59 C     c    0.143224 *  0.822405 *  0.057205 *   0.00000    1.000000    
     60 C     c    0.628676 *  0.536268 *  0.265687 *   0.00000    1.000000    
     61 C     c    0.585194 *  0.821263 *  0.380745 *   0.00000    1.000000    
     62 C     c    0.005867 *  0.168850 *  0.607111 *   0.00000    1.000000    
     63 C     c    0.643894 *  0.628196 *  0.914080 *   0.00000    1.000000    
     64 C     c    0.623175 *  0.836438 *  0.833322 *   0.00000    1.000000    
--------------------------------------------------------------------------------


  Constraints : 

--------------------------------------------------------------------------------
  Constraint no.      Unconstrained     Constrained    Coefficient    Offset
                         Variable         Variable
--------------------------------------------------------------------------------
           1              Strain 1        Strain 2       1.00000      0.0000
           2              Strain 1        Strain 3       1.00000      0.0000
--------------------------------------------------------------------------------


********************************************************************************
*  General input information                                                   *
********************************************************************************

  Species output for all configurations : 

--------------------------------------------------------------------------------
  Species    Type    Atomic    Atomic    Charge       Radii (Angs)     Library
                     Number     Mass       (e)     Cova   Ionic  VDW   Symbol
--------------------------------------------------------------------------------
    C        Core        6      12.01   0.000000   0.770  0.000  1.530          
--------------------------------------------------------------------------------


  Lattice summation method               =    Ewald          (3-D)
                                         =    Parry          (2-D)
                                         =    Saunders et al (1-D)
  Accuracy factor for lattice sums       =   12.000


  Analytic derivatives to be used

  Time limit = Infinity

  Maximum range for interatomic potentials =    100000.000000 Angstroms

  Brenner et al 2002 potential to be used with explicit splines for P


********************************************************************************
*  Output for configuration   1                                                *
********************************************************************************


  Components of energy : 

--------------------------------------------------------------------------------
  Interatomic potentials     =           0.00000000 eV    
  Brenner potentials         =        -284.85077998 eV    
  Monopole - monopole (real) =           0.00000000 eV    
  Monopole - monopole (recip)=           0.00000000 eV    
  Monopole - monopole (total)=           0.00000000 eV    
--------------------------------------------------------------------------------
  Total lattice energy       =        -284.85077998 eV    
--------------------------------------------------------------------------------
  Total lattice energy       =          -27483.7459 kJ/(mole unit cells)
--------------------------------------------------------------------------------


  Number of variables =      190

  Maximum number of calculations  =          2000
  Maximum Hessian update interval =            10
  Maximum step size               =   1.000000000
  Maximum parameter tolerance     =   0.000010000
  Maximum function  tolerance     =   0.000100000
  Maximum gradient  tolerance     =   0.001000000
  Maximum gradient  component     =   0.010000000

  Symmetry not applied to optimisation

  Cell parameters to be optimised using strains

  Conjugate gradient optimiser to be used

  Lower half triangular hessian to be used

  Start of bulk optimisation :

  Cycle:      0 Energy:      -284.850780  Gnorm:     11.843735  CPU:    0.034
  Cycle:      1 Energy:      -356.685483  Gnorm:      3.115188  CPU:    0.045
  Cycle:      2 Energy:      -381.666861  Gnorm:      1.984408  CPU:    0.067
  Cycle:      3 Energy:      -396.202228  Gnorm:      1.474975  CPU:    0.080
  Cycle:      4 Energy:      -405.043242  Gnorm:      1.168803  CPU:    0.088
  Cycle:      5 Energy:      -413.296207  Gnorm:      0.846309  CPU:    0.100
  Cycle:      6 Energy:      -416.916872  Gnorm:      0.830075  CPU:    0.120
  Cycle:      7 Energy:      -418.679623  Gnorm:      0.836152  CPU:    0.127
  Cycle:      8 Energy:      -421.510332  Gnorm:      0.512075  CPU:    0.134
  Cycle:      9 Energy:      -422.848644  Gnorm:      0.428531  CPU:    0.150
  Cycle:     10 Energy:      -423.516223  Gnorm:      0.278530  CPU:    0.166
  Cycle:     11 Energy:      -424.131297  Gnorm:      0.293924  CPU:    0.176
  Cycle:     12 Energy:      -424.801557  Gnorm:      0.325703  CPU:    0.182
  Cycle:     13 Energy:      -425.236829  Gnorm:      0.248186  CPU:    0.206
  Cycle:     14 Energy:      -425.581015  Gnorm:      0.251127  CPU:    0.217
  Cycle:     15 Energy:      -426.159364  Gnorm:      0.458527  CPU:    0.225
  Cycle:     16 Energy:      -426.562518  Gnorm:      0.461591  CPU:    0.238
  Cycle:     17 Energy:      -427.202302  Gnorm:      0.330351  CPU:    0.256
  Cycle:     18 Energy:      -427.398879  Gnorm:      0.203276  CPU:    0.264
  Cycle:     19 Energy:      -427.509095  Gnorm:      0.178522  CPU:    0.271
  Cycle:     20 Energy:      -427.553489  Gnorm:      0.114194  CPU:    0.290
  Cycle:     21 Energy:      -427.623141  Gnorm:      0.143208  CPU:    0.304
  Cycle:     22 Energy:      -427.664731  Gnorm:      0.121883  CPU:    0.311
  Cycle:     23 Energy:      -427.750981  Gnorm:      0.085786  CPU:    0.317
  Cycle:     24 Energy:      -427.782085  Gnorm:      0.096307  CPU:    0.342
  Cycle:     25 Energy:      -427.804152  Gnorm:      0.087407  CPU:    0.351
  Cycle:     26 Energy:      -427.824797  Gnorm:      0.069556  CPU:    0.358
  Cycle:     27 Energy:      -427.837532  Gnorm:      0.056412  CPU:    0.383
  Cycle:     28 Energy:      -427.850979  Gnorm:      0.048490  CPU:    0.393
  Cycle:     29 Energy:      -427.861672  Gnorm:      0.068594  CPU:    0.401
  Cycle:     30 Energy:      -427.866811  Gnorm:      0.033985  CPU:    0.408
  Cycle:     31 Energy:      -427.871674  Gnorm:      0.031761  CPU:    0.452
  Cycle:     32 Energy:      -427.879471  Gnorm:      0.044286  CPU:    0.462
  Cycle:     33 Energy:      -427.886874  Gnorm:      0.058935  CPU:    0.470
  Cycle:     34 Energy:      -427.894895  Gnorm:      0.042669  CPU:    0.484
  Cycle:     35 Energy:      -427.899741  Gnorm:      0.039252  CPU:    0.501
  Cycle:     36 Energy:      -427.906641  Gnorm:      0.036415  CPU:    0.509
  Cycle:     37 Energy:      -427.916819  Gnorm:      0.047812  CPU:    0.516
  Cycle:     38 Energy:      -427.924764  Gnorm:      0.054167  CPU:    0.541
  Cycle:     39 Energy:      -427.931192  Gnorm:      0.046711  CPU:    0.550
  Cycle:     40 Energy:      -427.934553  Gnorm:      0.036998  CPU:    0.556
  Cycle:     41 Energy:      -427.939767  Gnorm:      0.033224  CPU:    0.562
  Cycle:     42 Energy:      -427.943639  Gnorm:      0.025444  CPU:    0.587
  Cycle:     43 Energy:      -427.946439  Gnorm:      0.028441  CPU:    0.598
  Cycle:     44 Energy:      -427.948964  Gnorm:      0.030221  CPU:    0.609
  Cycle:     45 Energy:      -427.951876  Gnorm:      0.029455  CPU:    0.632
  Cycle:     46 Energy:      -427.954784  Gnorm:      0.030606  CPU:    0.639
  Cycle:     47 Energy:      -427.957697  Gnorm:      0.024457  CPU:    0.646
  Cycle:     48 Energy:      -427.959567  Gnorm:      0.029556  CPU:    0.669
  Cycle:     49 Energy:      -427.961180  Gnorm:      0.030911  CPU:    0.680
  Cycle:     50 Energy:      -427.962456  Gnorm:      0.015249  CPU:    0.687
  Cycle:     51 Energy:      -427.963993  Gnorm:      0.018512  CPU:    0.704
  Cycle:     52 Energy:      -427.965416  Gnorm:      0.023342  CPU:    0.721
  Cycle:     53 Energy:      -427.966921  Gnorm:      0.024485  CPU:    0.728
  Cycle:     54 Energy:      -427.968943  Gnorm:      0.024858  CPU:    0.734
  Cycle:     55 Energy:      -427.971214  Gnorm:      0.024287  CPU:    0.757
  Cycle:     56 Energy:      -427.974252  Gnorm:      0.027805  CPU:    0.771
  Cycle:     57 Energy:      -427.977449  Gnorm:      0.028031  CPU:    0.777
  Cycle:     58 Energy:      -427.980051  Gnorm:      0.025073  CPU:    0.782
  Cycle:     59 Energy:      -427.981981  Gnorm:      0.031756  CPU:    0.806
  Cycle:     60 Energy:      -427.983357  Gnorm:      0.022436  CPU:    0.817
  Cycle:     61 Energy:      -427.984693  Gnorm:      0.021124  CPU:    0.824
  Cycle:     62 Energy:      -427.986069  Gnorm:      0.022111  CPU:    0.847
  Cycle:     63 Energy:      -427.987412  Gnorm:      0.023186  CPU:    0.860
  Cycle:     64 Energy:      -427.989265  Gnorm:      0.019585  CPU:    0.868
  Cycle:     65 Energy:      -427.990165  Gnorm:      0.019467  CPU:    0.894
  Cycle:     66 Energy:      -427.990992  Gnorm:      0.014202  CPU:    0.902
  Cycle:     67 Energy:      -427.991490  Gnorm:      0.014792  CPU:    0.913
  Cycle:     68 Energy:      -427.992299  Gnorm:      0.016522  CPU:    0.940
  Cycle:     69 Energy:      -427.993081  Gnorm:      0.013180  CPU:    0.949
  Cycle:     70 Energy:      -427.993411  Gnorm:      0.012576  CPU:    0.954
  Cycle:     71 Energy:      -427.993858  Gnorm:      0.013127  CPU:    0.979
  Cycle:     72 Energy:      -427.994441  Gnorm:      0.014863  CPU:    0.989
  Cycle:     73 Energy:      -427.994904  Gnorm:      0.013668  CPU:    0.996
  Cycle:     74 Energy:      -427.995442  Gnorm:      0.013811  CPU:    1.004
  Cycle:     75 Energy:      -427.996537  Gnorm:      0.018119  CPU:    1.030
  Cycle:     76 Energy:      -427.997982  Gnorm:      0.026754  CPU:    1.040
  Cycle:     77 Energy:      -427.999122  Gnorm:      0.018546  CPU:    1.047
  Cycle:     78 Energy:      -427.999773  Gnorm:      0.014366  CPU:    1.072
  Cycle:     79 Energy:      -428.000474  Gnorm:      0.019109  CPU:    1.086
  Cycle:     80 Energy:      -428.000872  Gnorm:      0.009352  CPU:    1.091
  Cycle:     81 Energy:      -428.001328  Gnorm:      0.013724  CPU:    1.118
  Cycle:     82 Energy:      -428.002010  Gnorm:      0.015240  CPU:    1.128
  Cycle:     83 Energy:      -428.002887  Gnorm:      0.010775  CPU:    1.134
  Cycle:     84 Energy:      -428.003125  Gnorm:      0.009898  CPU:    1.143
  Cycle:     85 Energy:      -428.003524  Gnorm:      0.012412  CPU:    1.170
  Cycle:     86 Energy:      -428.003909  Gnorm:      0.010638  CPU:    1.176
  Cycle:     87 Energy:      -428.004239  Gnorm:      0.011571  CPU:    1.197
  Cycle:     88 Energy:      -428.004642  Gnorm:      0.013677  CPU:    1.218
  Cycle:     89 Energy:      -428.005418  Gnorm:      0.017305  CPU:    1.233
  Cycle:     90 Energy:      -428.005858  Gnorm:      0.010641  CPU:    1.240
  Cycle:     91 Energy:      -428.006220  Gnorm:      0.007772  CPU:    1.248
  Cycle:     92 Energy:      -428.006501  Gnorm:      0.011364  CPU:    1.273
  Cycle:     93 Energy:      -428.006962  Gnorm:      0.010605  CPU:    1.281
  Cycle:     94 Energy:      -428.007340  Gnorm:      0.012121  CPU:    1.289
  Cycle:     95 Energy:      -428.007606  Gnorm:      0.006125  CPU:    1.304
  Cycle:     96 Energy:      -428.007811  Gnorm:      0.009606  CPU:    1.324
  Cycle:     97 Energy:      -428.008030  Gnorm:      0.009066  CPU:    1.332
  Cycle:     98 Energy:      -428.008334  Gnorm:      0.009877  CPU:    1.355
  Cycle:     99 Energy:      -428.008539  Gnorm:      0.009113  CPU:    1.364
  Cycle:    100 Energy:      -428.008706  Gnorm:      0.006551  CPU:    1.371
  Cycle:    101 Energy:      -428.008779  Gnorm:      0.004740  CPU:    1.386
  Cycle:    102 Energy:      -428.009009  Gnorm:      0.009300  CPU:    1.403
  Cycle:    103 Energy:      -428.009200  Gnorm:      0.007648  CPU:    1.410
  Cycle:    104 Energy:      -428.009411  Gnorm:      0.008386  CPU:    1.416
  Cycle:    105 Energy:      -428.009627  Gnorm:      0.007766  CPU:    1.440
  Cycle:    106 Energy:      -428.009882  Gnorm:      0.007986  CPU:    1.448
  Cycle:    107 Energy:      -428.010053  Gnorm:      0.009895  CPU:    1.455
  Cycle:    108 Energy:      -428.010491  Gnorm:      0.008471  CPU:    1.475
  Cycle:    109 Energy:      -428.011353  Gnorm:      0.019233  CPU:    1.489
  Cycle:    110 Energy:      -428.011879  Gnorm:      0.008480  CPU:    1.495
  Cycle:    111 Energy:      -428.011988  Gnorm:      0.004710  CPU:    1.501
  Cycle:    112 Energy:      -428.012035  Gnorm:      0.004052  CPU:    1.525
  Cycle:    113 Energy:      -428.012120  Gnorm:      0.004426  CPU:    1.536
  Cycle:    114 Energy:      -428.012185  Gnorm:      0.005895  CPU:    1.542
  Cycle:    115 Energy:      -428.012303  Gnorm:      0.006225  CPU:    1.548
  Cycle:    116 Energy:      -428.012432  Gnorm:      0.007488  CPU:    1.573
  Cycle:    117 Energy:      -428.012655  Gnorm:      0.008564  CPU:    1.581
  Cycle:    118 Energy:      -428.012912  Gnorm:      0.009117  CPU:    1.587
  Cycle:    119 Energy:      -428.013200  Gnorm:      0.006704  CPU:    1.593
  Cycle:    120 Energy:      -428.013281  Gnorm:      0.005460  CPU:    1.617
  Cycle:    121 Energy:      -428.013364  Gnorm:      0.005587  CPU:    1.627
  Cycle:    122 Energy:      -428.013592  Gnorm:      0.007409  CPU:    1.634
  Cycle:    123 Energy:      -428.013699  Gnorm:      0.004031  CPU:    1.648
  Cycle:    124 Energy:      -428.013764  Gnorm:      0.004155  CPU:    1.667
  Cycle:    125 Energy:      -428.013816  Gnorm:      0.004148  CPU:    1.674
  Cycle:    126 Energy:      -428.013858  Gnorm:      0.002416  CPU:    1.680
  Cycle:    127 Energy:      -428.013884  Gnorm:      0.003945  CPU:    1.703
  Cycle:    128 Energy:      -428.013936  Gnorm:      0.004632  CPU:    1.713
  Cycle:    129 Energy:      -428.014003  Gnorm:      0.004836  CPU:    1.721
  Cycle:    130 Energy:      -428.014040  Gnorm:      0.002528  CPU:    1.742
  Cycle:    131 Energy:      -428.014070  Gnorm:      0.003479  CPU:    1.754
  Cycle:    132 Energy:      -428.014088  Gnorm:      0.002360  CPU:    1.761
  Cycle:    133 Energy:      -428.014121  Gnorm:      0.003438  CPU:    1.768
  Cycle:    134 Energy:      -428.014152  Gnorm:      0.003461  CPU:    1.792
  Cycle:    135 Energy:      -428.014199  Gnorm:      0.004226  CPU:    1.800
  Cycle:    136 Energy:      -428.014244  Gnorm:      0.003683  CPU:    1.816
  Cycle:    137 Energy:      -428.014304  Gnorm:      0.004069  CPU:    1.833
  Cycle:    138 Energy:      -428.014349  Gnorm:      0.004362  CPU:    1.840
  Cycle:    139 Energy:      -428.014455  Gnorm:      0.004691  CPU:    1.847
  Cycle:    140 Energy:      -428.014505  Gnorm:      0.002877  CPU:    1.871
  Cycle:    141 Energy:      -428.014520  Gnorm:      0.001811  CPU:    1.880
  Cycle:    142 Energy:      -428.014532  Gnorm:      0.002380  CPU:    1.888
  Cycle:    143 Energy:      -428.014554  Gnorm:      0.002974  CPU:    1.902
  Cycle:    144 Energy:      -428.014596  Gnorm:      0.002939  CPU:    1.920
  Cycle:    145 Energy:      -428.014618  Gnorm:      0.003319  CPU:    1.928
  Cycle:    146 Energy:      -428.014676  Gnorm:      0.003366  CPU:    1.935
  Cycle:    147 Energy:      -428.014702  Gnorm:      0.003382  CPU:    1.958
  Cycle:    148 Energy:      -428.014736  Gnorm:      0.003374  CPU:    1.970
  Cycle:    149 Energy:      -428.014777  Gnorm:      0.004217  CPU:    1.976
  Cycle:    150 Energy:      -428.014799  Gnorm:      0.002196  CPU:    1.982
  Cycle:    151 Energy:      -428.014821  Gnorm:      0.002576  CPU:    2.009
  Cycle:    152 Energy:      -428.014841  Gnorm:      0.002827  CPU:    2.015
  Cycle:    153 Energy:      -428.014865  Gnorm:      0.002740  CPU:    2.021
  Cycle:    154 Energy:      -428.014890  Gnorm:      0.002824  CPU:    2.045
  Cycle:    155 Energy:      -428.014910  Gnorm:      0.001720  CPU:    2.053
  Cycle:    156 Energy:      -428.014922  Gnorm:      0.001544  CPU:    2.059
  Cycle:    157 Energy:      -428.014935  Gnorm:      0.002404  CPU:    2.070
  Cycle:    158 Energy:      -428.014948  Gnorm:      0.002254  CPU:    2.091
  Cycle:    159 Energy:      -428.014957  Gnorm:      0.001795  CPU:    2.098
  Cycle:    160 Energy:      -428.014967  Gnorm:      0.001926  CPU:    2.104
  Cycle:    161 Energy:      -428.014979  Gnorm:      0.002525  CPU:    2.129
  Cycle:    162 Energy:      -428.014985  Gnorm:      0.001194  CPU:    2.136
  Cycle:    163 Energy:      -428.014989  Gnorm:      0.000946  CPU:    2.144
  Cycle:    164 Energy:      -428.014998  Gnorm:      0.001501  CPU:    2.174
  Cycle:    165 Energy:      -428.015001  Gnorm:      0.001392  CPU:    2.182
  Cycle:    166 Energy:      -428.015008  Gnorm:      0.001731  CPU:    2.188
  Cycle:    167 Energy:      -428.015018  Gnorm:      0.001566  CPU:    2.212
  Cycle:    168 Energy:      -428.015030  Gnorm:      0.002471  CPU:    2.222
  Cycle:    169 Energy:      -428.015050  Gnorm:      0.002278  CPU:    2.228
  Cycle:    170 Energy:      -428.015060  Gnorm:      0.001448  CPU:    2.236
  Cycle:    171 Energy:      -428.015063  Gnorm:      0.000769  CPU:    2.258
  Cycle:    172 Energy:      -428.015067  Gnorm:      0.001136  CPU:    2.268
  Cycle:    173 Energy:      -428.015076  Gnorm:      0.002377  CPU:    2.273
  Cycle:    174 Energy:      -428.015101  Gnorm:      0.003043  CPU:    2.294
  Cycle:    175 Energy:      -428.015112  Gnorm:      0.001419  CPU:    2.306
  Cycle:    176 Energy:      -428.015117  Gnorm:      0.001438  CPU:    2.315
  Cycle:    177 Energy:      -428.015125  Gnorm:      0.001301  CPU:    2.320
  Cycle:    178 Energy:      -428.015131  Gnorm:      0.001297  CPU:    2.344
  Cycle:    179 Energy:      -428.015139  Gnorm:      0.001822  CPU:    2.356
  Cycle:    180 Energy:      -428.015144  Gnorm:      0.000983  CPU:    2.364
  Cycle:    181 Energy:      -428.015146  Gnorm:      0.000815  CPU:    2.378
  Cycle:    182 Energy:      -428.015146  Gnorm:      0.000616  CPU:    2.396
  Cycle:    183 Energy:      -428.015147  Gnorm:      0.000602  CPU:    2.404
  Cycle:    184 Energy:      -428.015147  Gnorm:      0.000588  CPU:    2.427
  Cycle:    185 Energy:      -428.015147  Gnorm:      0.000584  CPU:    2.436
  Cycle:    186 Energy:      -428.015147  Gnorm:      0.000583  CPU:    2.442
  Cycle:    187 Energy:      -428.015153  Gnorm:      0.001008  CPU:    2.468
  Cycle:    188 Energy:      -428.015156  Gnorm:      0.001256  CPU:    2.478
  Cycle:    189 Energy:      -428.015162  Gnorm:      0.001532  CPU:    2.486
  Cycle:    190 Energy:      -428.015164  Gnorm:      0.000775  CPU:    2.491
  Cycle:    191 Energy:      -428.015168  Gnorm:      0.001191  CPU:    2.518
  Cycle:    192 Energy:      -428.015171  Gnorm:      0.000800  CPU:    2.527
  Cycle:    193 Energy:      -428.015175  Gnorm:      0.001344  CPU:    2.534
  Cycle:    194 Energy:      -428.015184  Gnorm:      0.002296  CPU:    2.557
  Cycle:    195 Energy:      -428.015201  Gnorm:      0.002695  CPU:    2.567
  Cycle:    196 Energy:      -428.015212  Gnorm:      0.001214  CPU:    2.574
  Cycle:    197 Energy:      -428.015217  Gnorm:      0.001096  CPU:    2.596
  Cycle:    198 Energy:      -428.015227  Gnorm:      0.002132  CPU:    2.609
  Cycle:    199 Energy:      -428.015239  Gnorm:      0.001739  CPU:    2.617
  Cycle:    200 Energy:      -428.015248  Gnorm:      0.001649  CPU:    2.622
  Cycle:    201 Energy:      -428.015252  Gnorm:      0.000957  CPU:    2.646
  Cycle:    202 Energy:      -428.015256  Gnorm:      0.000727  CPU:    2.655
  Cycle:    203 Energy:      -428.015257  Gnorm:      0.000400  CPU:    2.661
  Cycle:    204 Energy:      -428.015257  Gnorm:      0.000340  CPU:    2.667
  Cycle:    205 Energy:      -428.015258  Gnorm:      0.000953  CPU:    2.691
  Cycle:    206 Energy:      -428.015260  Gnorm:      0.001237  CPU:    2.701
  Cycle:    207 Energy:      -428.015264  Gnorm:      0.000501  CPU:    2.707
  Cycle:    208 Energy:      -428.015265  Gnorm:      0.000470  CPU:    2.713
  Cycle:    209 Energy:      -428.015266  Gnorm:      0.000597  CPU:    2.738
  Cycle:    210 Energy:      -428.015266  Gnorm:      0.000319  CPU:    2.746
  Cycle:    211 Energy:      -428.015266  Gnorm:      0.000303  CPU:    2.752
  Cycle:    212 Energy:      -428.015266  Gnorm:      0.000311  CPU:    2.758
  Cycle:    213 Energy:      -428.015267  Gnorm:      0.000647  CPU:    2.788
  Cycle:    214 Energy:      -428.015272  Gnorm:      0.001328  CPU:    2.797
  Cycle:    215 Energy:      -428.015278  Gnorm:      0.000854  CPU:    2.802
  Cycle:    216 Energy:      -428.015279  Gnorm:      0.000760  CPU:    2.827
  Cycle:    217 Energy:      -428.015280  Gnorm:      0.000597  CPU:    2.835
  Cycle:    218 Energy:      -428.015280  Gnorm:      0.000327  CPU:    2.842
  Cycle:    219 Energy:      -428.015280  Gnorm:      0.000287  CPU:    2.847
  Cycle:    220 Energy:      -428.015281  Gnorm:      0.000540  CPU:    2.877
  Cycle:    221 Energy:      -428.015282  Gnorm:      0.000579  CPU:    2.884
  Cycle:    222 Energy:      -428.015283  Gnorm:      0.000316  CPU:    2.890
  Cycle:    223 Energy:      -428.015283  Gnorm:      0.000387  CPU:    2.909
  Cycle:    224 Energy:      -428.015284  Gnorm:      0.000281  CPU:    2.922


  **** Optimisation achieved ****


  Final energy =    -428.01528464 eV
  Final Gnorm  =       0.00024158

  Components of energy : 

--------------------------------------------------------------------------------
  Interatomic potentials     =           0.00000000 eV    
  Brenner potentials         =        -428.01528464 eV    
  Monopole - monopole (real) =           0.00000000 eV    
  Monopole - monopole (recip)=           0.00000000 eV    
  Monopole - monopole (total)=           0.00000000 eV    
--------------------------------------------------------------------------------
  Total lattice energy       =        -428.01528464 eV    
--------------------------------------------------------------------------------
  Total lattice energy       =          -41296.9322 kJ/(mole unit cells)
--------------------------------------------------------------------------------

  Final fractional coordinates of atoms :

--------------------------------------------------------------------------------
   No.  Atomic        x           y          z          Radius
        Label       (Frac)      (Frac)     (Frac)       (Angs) 
--------------------------------------------------------------------------------
     1  C     c     0.027883    0.588410    0.365133    0.000000
     2  C     c     0.268009    0.100448    0.108471    0.000000
     3  C     c     0.104335    0.438989    0.269073    0.000000
     4  C     c     0.880378    0.966841    0.452512    0.000000
     5  C     c     0.479923    0.919870    0.988004    0.000000
     6  C     c     0.790318    0.446742    0.218601    0.000000
     7  C     c     0.924768    0.638748    0.715330    0.000000
     8  C     c     0.809577    0.559801    0.587626    0.000000
     9  C     c     0.131331    0.381095    0.635900    0.000000
    10  C     c     0.408160    0.766417    0.116971    0.000000
    11  C     c     0.868590    0.256456    0.728519    0.000000
    12  C     c     0.573419    0.901732    0.557921    0.000000
    13  C     c     0.422112    0.243757    0.626960    0.000000
    14  C     c     0.200446    0.983691    0.798191    0.000000
    15  C     c     0.525613    0.610094    0.406068    0.000000
    16  C     c     0.992467    0.938318    0.123245    0.000000
    17  C     c     0.135881    0.821105    0.858571    0.000000
    18  C     c     0.350218    0.691578    0.663390    0.000000
    19  C     c     0.728018    0.393773    0.675932    0.000000
    20  C     c     0.051749    0.258061    0.270693    0.000000
    21  C     c     0.939280    0.172138    0.420399    0.000000
    22  C     c     0.845574    0.617891    0.411902    0.000000
    23  C     c     0.482399    0.819832    0.690691    0.000000
    24  C     c     0.797559    0.295753    0.325839    0.000000
    25  C     c     0.677340    0.167789    0.014049    0.000000
    26  C     c     0.523900    0.606239    0.087511    0.000000
    27  C     c     0.599640    0.290265    0.563678    0.000000
    28  C     c     0.638571    0.994873    0.114157    0.000000
    29  C     c     0.484556    0.917628    0.250506    0.000000
    30  C     c     0.341127    0.058078    0.920079    0.000000
    31  C     c     0.822759    0.125483    0.880679    0.000000
    32  C     c     0.872808    0.769566    0.837190    0.000000
    33  C     c     0.305537    0.398735    0.572927    0.000000
    34  C     c     0.230685    0.687947    0.123890    0.000000
    35  C     c     0.070519    0.507421    0.779001    0.000000
    36  C     c     0.325638    0.101533    0.507963    0.000000
    37  C     c     0.124341    0.742187    0.424774    0.000000
    38  C     c     0.544242    0.316930    0.952813    0.000000
    39  C     c     0.071208    0.129843    0.116209    0.000000
    40  C     c     0.777138    0.947479    0.798620    0.000000
    41  C     c     0.393430    0.560771    0.532953    0.000000
    42  C     c     0.068844    0.897292    0.499227    0.000000
    43  C     c     0.998874    0.418656    0.951824    0.000000
    44  C     c     0.242405    0.501465    0.156723    0.000000
    45  C     c     0.196398    0.671242    0.768014    0.000000
    46  C     c     0.894751    0.515413    0.076752    0.000000
    47  C     c     0.803957    0.864271    0.153900    0.000000
    48  C     c     0.992852    0.225494    0.957664    0.000000
    49  C     c     0.778721    0.807283    0.348179    0.000000
    50  C     c     0.826574    0.700165    0.023475    0.000000
    51  C     c     0.158047    0.042711    0.608048    0.000000
    52  C     c     0.478346    0.262461    0.271005    0.000000
    53  C     c     0.437638    0.400472    0.120259    0.000000
    54  C     c     0.369701    0.086427    0.295193    0.000000
    55  C     c     0.625508    0.266600    0.386578    0.000000
    56  C     c     0.422944    0.213294    0.828325    0.000000
    57  C     c     0.640195    0.460721    0.845460    0.000000
    58  C     c     0.740155    0.970416    0.603129    0.000000
    59  C     c     0.102597    0.802424    0.044365    0.000000
    60  C     c     0.620705    0.536363    0.253635    0.000000
    61  C     c     0.577094    0.810842    0.389702    0.000000
    62  C     c     0.024501    0.213257    0.606429    0.000000
    63  C     c     0.644241    0.644016    0.931866    0.000000
    64  C     c     0.594220    0.827741    0.852400    0.000000
--------------------------------------------------------------------------------

  Final Cartesian lattice vectors (Angstroms) :

        7.569564    0.000000    0.000000
        0.000000    7.569564    0.000000
        0.000000    0.000000    7.569564


  Final cell parameters and derivatives :

--------------------------------------------------------------------------------
       a            7.569564 Angstrom     dE/de1(xx)    -0.001257 eV/strain
       b            7.569564 Angstrom     dE/de2(yy)     0.000000 eV/strain
       c            7.569564 Angstrom     dE/de3(zz)     0.000000 eV/strain
       alpha       90.000000 Degrees      dE/de4(yz)     0.000000 eV/strain
       beta        90.000000 Degrees      dE/de5(xz)     0.000000 eV/strain
       gamma       90.000000 Degrees      dE/de6(xy)     0.000000 eV/strain
--------------------------------------------------------------------------------

  Primitive cell volume =           433.723083 Angs**3

  Density of cell =      2.942839 g/cm**3

  Non-primitive cell volume =           433.723083 Angs**3


  Final internal derivatives :

--------------------------------------------------------------------------------
   No.  Atomic          a             b             c           Radius
        Label          (eV)          (eV)          (eV)        (eV/Angs)
--------------------------------------------------------------------------------
      1 C     c       0.000000      0.000000      0.000000      0.000000
      2 C     c       0.004307     -0.004114     -0.003171      0.000000
      3 C     c       0.001402     -0.000678      0.000037      0.000000
      4 C     c       0.002486     -0.002557     -0.001914      0.000000
      5 C     c       0.004276     -0.005183     -0.004672      0.000000
      6 C     c       0.003032     -0.004593     -0.003345      0.000000
      7 C     c       0.001219     -0.005055     -0.003048      0.000000
      8 C     c       0.001190     -0.004232     -0.000673      0.000000
      9 C     c       0.003279     -0.003638     -0.002650      0.000000
     10 C     c       0.005104     -0.004492     -0.002954      0.000000
     11 C     c       0.003412     -0.002603     -0.003389      0.000000
     12 C     c       0.002153     -0.003351     -0.000356      0.000000
     13 C     c       0.003116     -0.004396     -0.003027      0.000000
     14 C     c       0.003362     -0.005470     -0.001598      0.000000
     15 C     c       0.002372     -0.003165     -0.000953      0.000000
     16 C     c       0.002395     -0.005231     -0.002010      0.000000
     17 C     c       0.004311     -0.004274     -0.000550      0.000000
     18 C     c       0.004720     -0.004443     -0.002433      0.000000
     19 C     c       0.004492     -0.005228     -0.001885      0.000000
     20 C     c       0.003390     -0.002848     -0.001123      0.000000
     21 C     c       0.004097     -0.002993     -0.002715      0.000000
     22 C     c       0.003437     -0.000678     -0.000127      0.000000
     23 C     c       0.003740     -0.004232     -0.001724      0.000000
     24 C     c       0.001620     -0.003280     -0.001304      0.000000
     25 C     c       0.002383     -0.004258     -0.001463      0.000000
     26 C     c       0.003337     -0.005192     -0.003122      0.000000
     27 C     c       0.003469     -0.005162     -0.002697      0.000000
     28 C     c       0.002918     -0.004158     -0.003011      0.000000
     29 C     c       0.003844     -0.004542     -0.000118      0.000000
     30 C     c       0.003201     -0.002695     -0.001609      0.000000
     31 C     c       0.005859     -0.004708     -0.001794      0.000000
     32 C     c       0.002355     -0.004251     -0.003703      0.000000
     33 C     c       0.004072     -0.004580     -0.002162      0.000000
     34 C     c       0.003006     -0.002949     -0.001064      0.000000
     35 C     c       0.003787     -0.003557     -0.003030      0.000000
     36 C     c       0.003156     -0.004440     -0.001970      0.000000
     37 C     c       0.001558     -0.001998     -0.000783      0.000000
     38 C     c       0.004062     -0.003692     -0.002446      0.000000
     39 C     c       0.003959     -0.002860     -0.001076      0.000000
     40 C     c      -0.000760     -0.005889     -0.000711      0.000000
     41 C     c       0.004554     -0.004768     -0.003720      0.000000
     42 C     c       0.002333     -0.002311     -0.001292      0.000000
     43 C     c       0.002783     -0.002082     -0.000731      0.000000
     44 C     c       0.002682     -0.003516      0.001193      0.000000
     45 C     c       0.002871     -0.004853     -0.001160      0.000000
     46 C     c       0.004971     -0.004371     -0.003149      0.000000
     47 C     c       0.004625     -0.003006     -0.001106      0.000000
     48 C     c       0.002116     -0.004433     -0.004043      0.000000
     49 C     c       0.001201     -0.002385     -0.003319      0.000000
     50 C     c       0.003179     -0.004316     -0.000785      0.000000
     51 C     c       0.003278     -0.003048     -0.002532      0.000000
     52 C     c       0.003985     -0.004579     -0.001483      0.000000
     53 C     c       0.001913     -0.003567     -0.002609      0.000000
     54 C     c       0.002954     -0.003913     -0.002124      0.000000
     55 C     c       0.003290     -0.004320     -0.002765      0.000000
     56 C     c       0.003491     -0.005173     -0.000844      0.000000
     57 C     c       0.002933     -0.005364     -0.001981      0.000000
     58 C     c       0.002848     -0.003389     -0.003314      0.000000
     59 C     c       0.002925     -0.001688     -0.002961      0.000000
     60 C     c       0.004843     -0.003510     -0.001984      0.000000
     61 C     c       0.002016     -0.003795     -0.004949      0.000000
     62 C     c       0.003316     -0.003641     -0.001243      0.000000
     63 C     c       0.003389     -0.003820     -0.001835      0.000000
     64 C     c       0.007492     -0.001975     -0.004548      0.000000
--------------------------------------------------------------------------------
  Maximum abs         0.007492      0.005889      0.004949      0.000000
--------------------------------------------------------------------------------


  Time to end of optimisation =       2.9295 seconds


  Peak dynamic memory used =       1.98 MB 


  Timing analysis for GULP :

--------------------------------------------------------------------------------
  Task / Subroutine                                          Time (Seconds)
--------------------------------------------------------------------------------
  Calculation of Brenner energy and derivatives                   2.8705
--------------------------------------------------------------------------------
  Total CPU time                                                  2.9295
--------------------------------------------------------------------------------


  CIF file written as pre.cif


  Job Finished at 23:31.07 10th August     2020                               

