********************************************************************************
*                       GENERAL UTILITY LATTICE PROGRAM                        *
*                                 Julian Gale                                  *
*                       Curtin Institute for Computation                       *
*                    School of Molecular and Life Sciences                     *
*                    Curtin University, Western Australia                      *
********************************************************************************
* Version = 5.2.0 * Last modified =  17th December 2019                        *
********************************************************************************
*  single       - perform a single point run                                   *
*  md           - perform molecular dynamics run                               *
*  conv         - constant volume calculation                                  *
********************************************************************************
* ASE calculation                                                              *
********************************************************************************


  Job Started  at 16:16.28 12th August     2020                               

  Number of CPUs =     1


  Total number of configurations input =      1

********************************************************************************
*  Input for Configuration =   1                                               *
********************************************************************************

  Formula = C64                                                         

  Number of irreducible atoms/shells =      64


  Total number atoms/shells =      64

  Dimensionality = 3               :  Bulk   



  Cartesian lattice vectors (Angstroms) :

        7.090300    0.000000    0.000000
        0.000000    7.090300    0.000000
        0.000000    0.000000    7.090300

  Cell parameters (Angstroms/Degrees):

  a =       7.0903    alpha =  90.0000
  b =       7.0903    beta  =  90.0000
  c =       7.0903    gamma =  90.0000

  Initial cell volume =         356.446072 Angs**3

  Temperature of configuration =   50.0     K 

  Pressure of configuration =         0.000 GPa 

  Fractional coordinates of asymmetric unit :

--------------------------------------------------------------------------------
   No.  Atomic       x           y          z         Charge      Occupancy
        Label      (Frac)      (Frac)     (Frac)        (e)         (Frac)  
--------------------------------------------------------------------------------
      1 C     c    0.027880 *  0.588410 *  0.365130 *   0.00000    1.000000    
      2 C     c    0.252570 *  0.018110 *  0.113540 *   0.00000    1.000000    
      3 C     c    0.111120 *  0.473480 *  0.264910 *   0.00000    1.000000    
      4 C     c    0.895590 *  0.937940 *  0.435500 *   0.00000    1.000000    
      5 C     c    0.515220 *  0.919500 *  0.996640 *   0.00000    1.000000    
      6 C     c    0.829460 *  0.486200 *  0.219890 *   0.00000    1.000000    
      7 C     c    0.947390 *  0.600740 *  0.703160 *   0.00000    1.000000    
      8 C     c    0.835890 *  0.489770 *  0.543730 *   0.00000    1.000000    
      9 C     c    0.125100 *  0.365570 *  0.646660 *   0.00000    1.000000    
     10 C     c    0.443900 *  0.781970 *  0.118530 *   0.00000    1.000000    
     11 C     c    0.861560 *  0.240380 *  0.722110 *   0.00000    1.000000    
     12 C     c    0.573490 *  0.913130 *  0.555630 *   0.00000    1.000000    
     13 C     c    0.382410 *  0.244930 *  0.621850 *   0.00000    1.000000    
     14 C     c    0.249140 *  0.892320 *  0.781740 *   0.00000    1.000000    
     15 C     c    0.578520 *  0.627510 *  0.387320 *   0.00000    1.000000    
     16 C     c    0.971440 *  0.957310 *  0.086480 *   0.00000    1.000000    
     17 C     c    0.177580 *  0.741000 *  0.855830 *   0.00000    1.000000    
     18 C     c    0.347590 *  0.682570 *  0.627290 *   0.00000    1.000000    
     19 C     c    0.718870 *  0.346980 *  0.651280 *   0.00000    1.000000    
     20 C     c    0.078180 *  0.258270 *  0.294460 *   0.00000    1.000000    
     21 C     c    0.922610 *  0.131980 *  0.400430 *   0.00000    1.000000    
     22 C     c    0.868270 *  0.596220 *  0.394230 *   0.00000    1.000000    
     23 C     c    0.566550 *  0.772940 *  0.671090 *   0.00000    1.000000    
     24 C     c    0.799970 *  0.300680 *  0.338050 *   0.00000    1.000000    
     25 C     c    0.715580 *  0.193260 *  0.043370 *   0.00000    1.000000    
     26 C     c    0.482000 *  0.585070 *  0.080980 *   0.00000    1.000000    
     27 C     c    0.574450 *  0.256890 *  0.610210 *   0.00000    1.000000    
     28 C     c    0.659860 *  0.994910 *  0.057710 *   0.00000    1.000000    
     29 C     c    0.559070 *  0.979130 *  0.259640 *   0.00000    1.000000    
     30 C     c    0.354810 *  0.963500 *  0.925910 *   0.00000    1.000000    
     31 C     c    0.854450 *  0.132450 *  0.865070 *   0.00000    1.000000    
     32 C     c    0.927070 *  0.731460 *  0.812460 *   0.00000    1.000000    
     33 C     c    0.291640 *  0.397500 *  0.554140 *   0.00000    1.000000    
     34 C     c    0.280850 *  0.749020 *  0.181570 *   0.00000    1.000000    
     35 C     c    0.121170 *  0.478810 *  0.803440 *   0.00000    1.000000    
     36 C     c    0.296250 *  0.080220 *  0.502520 *   0.00000    1.000000    
     37 C     c    0.221810 *  0.723260 *  0.440740 *   0.00000    1.000000    
     38 C     c    0.525720 *  0.347460 *  0.957450 *   0.00000    1.000000    
     39 C     c    0.047530 *  0.135900 *  0.115860 *   0.00000    1.000000    
     40 C     c    0.819910 *  0.943120 *  0.812380 *   0.00000    1.000000    
     41 C     c    0.417230 *  0.555070 *  0.521230 *   0.00000    1.000000    
     42 C     c    0.082250 *  0.894000 *  0.476100 *   0.00000    1.000000    
     43 C     c    0.061650 *  0.426500 *  0.960170 *   0.00000    1.000000    
     44 C     c    0.202800 *  0.540990 *  0.116240 *   0.00000    1.000000    
     45 C     c    0.277250 *  0.551030 *  0.836200 *   0.00000    1.000000    
     46 C     c    0.906890 *  0.525000 *  0.026130 *   0.00000    1.000000    
     47 C     c    0.818320 *  0.854010 *  0.061040 *   0.00000    1.000000    
     48 C     c    0.053860 *  0.230000 *  0.934910 *   0.00000    1.000000    
     49 C     c    0.801840 *  0.831560 *  0.309790 *   0.00000    1.000000    
     50 C     c    0.794960 *  0.659370 *  0.986870 *   0.00000    1.000000    
     51 C     c    0.155690 *  0.047970 *  0.612160 *   0.00000    1.000000    
     52 C     c    0.418770 *  0.279550 *  0.238130 *   0.00000    1.000000    
     53 C     c    0.365250 *  0.431430 *  0.064990 *   0.00000    1.000000    
     54 C     c    0.337160 *  0.094270 *  0.297520 *   0.00000    1.000000    
     55 C     c    0.570980 *  0.212350 *  0.404450 *   0.00000    1.000000    
     56 C     c    0.398360 *  0.179010 *  0.824100 *   0.00000    1.000000    
     57 C     c    0.643410 *  0.448980 *  0.826790 *   0.00000    1.000000    
     58 C     c    0.781050 *  0.927830 *  0.602300 *   0.00000    1.000000    
     59 C     c    0.143220 *  0.822410 *  0.057200 *   0.00000    1.000000    
     60 C     c    0.628680 *  0.536270 *  0.265690 *   0.00000    1.000000    
     61 C     c    0.585190 *  0.821260 *  0.380750 *   0.00000    1.000000    
     62 C     c    0.005870 *  0.168850 *  0.607110 *   0.00000    1.000000    
     63 C     c    0.643890 *  0.628200 *  0.914080 *   0.00000    1.000000    
     64 C     c    0.623180 *  0.836440 *  0.833320 *   0.00000    1.000000    
--------------------------------------------------------------------------------



********************************************************************************
*  General input information                                                   *
********************************************************************************

  Species output for all configurations : 

--------------------------------------------------------------------------------
  Species    Type    Atomic    Atomic    Charge       Radii (Angs)     Library
                     Number     Mass       (e)     Cova   Ionic  VDW   Symbol
--------------------------------------------------------------------------------
    C        Core        6      12.01   0.000000   0.770  0.000  1.530          
--------------------------------------------------------------------------------


  Lattice summation method               =    Ewald          (3-D)
                                         =    Parry          (2-D)
                                         =    Saunders et al (1-D)
  Accuracy factor for lattice sums       =   12.000


  Analytic derivatives to be used

  Time limit = Infinity

  Maximum range for interatomic potentials =    100000.000000 Angstroms

  Brenner et al 2002 potential to be used with explicit splines for P


********************************************************************************
*  Output for configuration   1                                                *
********************************************************************************


  Components of energy : 

--------------------------------------------------------------------------------
  Interatomic potentials     =           0.00000000 eV    
  Brenner potentials         =        -284.84012514 eV    
  Monopole - monopole (real) =           0.00000000 eV    
  Monopole - monopole (recip)=           0.00000000 eV    
  Monopole - monopole (total)=           0.00000000 eV    
--------------------------------------------------------------------------------
  Total lattice energy       =        -284.84012514 eV    
--------------------------------------------------------------------------------
  Total lattice energy       =          -27482.7179 kJ/(mole unit cells)
--------------------------------------------------------------------------------

  Equations of motion will be integrated using the leapfrog Verlet algorithm.

********************************************************************************
*  Molecular Dynamics                                                          *
********************************************************************************

  Canonical ensemble (NVT) to be used

  Friction for temperature bath =           0.100000
  No. of mobile ions        =                 64

  No. of degrees of freedom =                189

  Time step                 =           0.000100 ps
  Equilibration time        =           5.000000 ps
  Production time           =           0.000000 ps
  Scaling time              =           5.000000 ps
  Scaling frequency         =           0.000100 ps
  Sampling frequency        =           0.005000 ps
  Write frequency           =           0.002000 ps
  TD-Force start time       =           0.000000 ps
  TD-Field start time       =           0.000000 ps



  Molecular dynamics equilibration :

  ** Time :            0.00500 ps :
     Properties:                   Instantaneous       Averaged
       Kinetic energy    (eV) =       0.583199          0.583199
       Potential energy  (eV) =    -318.943658       -318.943658
       Total energy      (eV) =    -318.360459       -318.360459
       Temperature       (K)  =      71.616255         71.616255
       Pressure         (GPa) =     147.708327        147.708327
  ** Time :            0.01000 ps :
     Properties:                   Instantaneous       Averaged
       Kinetic energy    (eV) =       0.529132          0.556166
       Potential energy  (eV) =    -338.488416       -328.716037
       Total energy      (eV) =    -337.959284       -328.159871
       Temperature       (K)  =      64.976900         68.296578
       Pressure         (GPa) =     117.872344        132.790336
  ** Time :            0.01500 ps :
     Properties:                   Instantaneous       Averaged
       Kinetic energy    (eV) =       0.494440          0.535591
       Potential energy  (eV) =    -351.700239       -336.377437
       Total energy      (eV) =    -351.205798       -335.841847
       Temperature       (K)  =      60.716796         65.769984
       Pressure         (GPa) =     106.676058        124.085576
  ** Time :            0.02000 ps :
     Properties:                   Instantaneous       Averaged
       Kinetic energy    (eV) =       0.471750          0.519630
       Potential energy  (eV) =    -360.611066       -342.435845
       Total energy      (eV) =    -360.139316       -341.916214
       Temperature       (K)  =      57.930437         63.810097
       Pressure         (GPa) =      99.625791        117.970630
  ** Time :            0.02500 ps :
     Properties:                   Instantaneous       Averaged
       Kinetic energy    (eV) =       0.458420          0.507388
       Potential energy  (eV) =    -367.252172       -347.399110
       Total energy      (eV) =    -366.793752       -346.891722
       Temperature       (K)  =      56.293567         62.306791
       Pressure         (GPa) =      92.142173        112.804939
  ** Time :            0.03000 ps :
     Properties:                   Instantaneous       Averaged
       Kinetic energy    (eV) =       0.448632          0.497596
       Potential energy  (eV) =    -372.514794       -351.585057
       Total energy      (eV) =    -372.066162       -351.087462
       Temperature       (K)  =      55.091613         61.104261
       Pressure         (GPa) =      87.721549        108.624374
  ** Time :            0.03500 ps :
     Properties:                   Instantaneous       Averaged
       Kinetic energy    (eV) =       0.440488          0.489438
       Potential energy  (eV) =    -376.676398       -355.169535
       Total energy      (eV) =    -376.235910       -354.680097
       Temperature       (K)  =      54.091524         60.102442
       Pressure         (GPa) =      85.650265        105.342358
  ** Time :            0.04000 ps :
     Properties:                   Instantaneous       Averaged
       Kinetic energy    (eV) =       0.434907          0.482621
       Potential energy  (eV) =    -380.059452       -358.280774
       Total energy      (eV) =    -379.624545       -357.798153
       Temperature       (K)  =      53.406122         59.265402
       Pressure         (GPa) =      83.644676        102.630148
  ** Time :            0.04500 ps :
     Properties:                   Instantaneous       Averaged
       Kinetic energy    (eV) =       0.430890          0.476873
       Potential energy  (eV) =    -382.875633       -361.013536
       Total energy      (eV) =    -382.444743       -360.536663
       Temperature       (K)  =      52.912875         58.559565
       Pressure         (GPa) =      82.331230        100.374713
  ** Time :            0.05000 ps :
     Properties:                   Instantaneous       Averaged
       Kinetic energy    (eV) =       0.427982          0.471984
       Potential energy  (eV) =    -385.280668       -363.440250
       Total energy      (eV) =    -384.852686       -362.968265
       Temperature       (K)  =      52.555805         57.959189
       Pressure         (GPa) =      81.274752         98.464716
  ** Time :            0.05500 ps :
     Properties:                   Instantaneous       Averaged
       Kinetic energy    (eV) =       0.427145          0.467908
       Potential energy  (eV) =    -387.444395       -365.622445
       Total energy      (eV) =    -387.017250       -365.154537
       Temperature       (K)  =      52.452929         57.458620
       Pressure         (GPa) =      79.814288         96.769223
  ** Time :            0.06000 ps :
     Properties:                   Instantaneous       Averaged
       Kinetic energy    (eV) =       0.428010          0.464583
       Potential energy  (eV) =    -389.689092       -367.627999
       Total energy      (eV) =    -389.261082       -367.163416
       Temperature       (K)  =      52.559154         57.050331
       Pressure         (GPa) =      79.108805         95.297522
  ** Time :            0.06500 ps :
     Properties:                   Instantaneous       Averaged
       Kinetic energy    (eV) =       0.425561          0.461581
       Potential energy  (eV) =    -391.866089       -369.492467
       Total energy      (eV) =    -391.440529       -369.030886
       Temperature       (K)  =      52.258448         56.681725
       Pressure         (GPa) =      80.123363         94.130279
  ** Time :            0.07000 ps :
     Properties:                   Instantaneous       Averaged
       Kinetic energy    (eV) =       0.425676          0.459017
       Potential energy  (eV) =    -393.946069       -371.239153
       Total energy      (eV) =    -393.520393       -370.780136
       Temperature       (K)  =      52.272545         56.366784
       Pressure         (GPa) =      79.298031         93.070832
  ** Time :            0.07500 ps :
     Properties:                   Instantaneous       Averaged
       Kinetic energy    (eV) =       0.423288          0.456635
       Potential energy  (eV) =    -395.618387       -372.864435
       Total energy      (eV) =    -395.195098       -372.407800
       Temperature       (K)  =      51.979377         56.074290
       Pressure         (GPa) =      77.689052         92.045380
  ** Time :            0.08000 ps :
     Properties:                   Instantaneous       Averaged
       Kinetic energy    (eV) =       0.420467          0.454374
       Potential energy  (eV) =    -397.103723       -374.379391
       Total energy      (eV) =    -396.683257       -373.925016
       Temperature       (K)  =      51.632920         55.796704
       Pressure         (GPa) =      76.931811         91.100782
  ** Time :            0.08500 ps :
     Properties:                   Instantaneous       Averaged
       Kinetic energy    (eV) =       0.419318          0.452312
       Potential energy  (eV) =    -398.366374       -375.790390
       Total energy      (eV) =    -397.947056       -375.338078
       Temperature       (K)  =      51.491834         55.543476
       Pressure         (GPa) =      76.673777         90.252135
  ** Time :            0.09000 ps :
     Properties:                   Instantaneous       Averaged
       Kinetic energy    (eV) =       0.422829          0.450674
       Potential energy  (eV) =    -399.891774       -377.129355
       Total energy      (eV) =    -399.468946       -376.678681
       Temperature       (K)  =      51.922962         55.342337
       Pressure         (GPa) =      75.365401         89.425094
  ** Time :            0.09500 ps :
     Properties:                   Instantaneous       Averaged
       Kinetic energy    (eV) =       0.417032          0.448903
       Potential energy  (eV) =    -401.164416       -378.394359
       Total energy      (eV) =    -400.747385       -377.945455
       Temperature       (K)  =      51.211061         55.124901
       Pressure         (GPa) =      74.462383         88.637583
  ** Time :            0.10000 ps :
     Properties:                   Instantaneous       Averaged
       Kinetic energy    (eV) =       0.415044          0.447210
       Potential energy  (eV) =    -402.097533       -379.579517
       Total energy      (eV) =    -401.682489       -379.132307
       Temperature       (K)  =      50.966959         54.917004
       Pressure         (GPa) =      73.502674         87.880838
  ** Time :            0.10500 ps :
     Properties:                   Instantaneous       Averaged
       Kinetic energy    (eV) =       0.414419          0.445649
       Potential energy  (eV) =    -402.896149       -380.689833
       Total energy      (eV) =    -402.481730       -380.244184
       Temperature       (K)  =      50.890188         54.725251
       Pressure         (GPa) =      72.704117         87.158137
  ** Time :            0.11000 ps :
     Properties:                   Instantaneous       Averaged
       Kinetic energy    (eV) =       0.413975          0.444209
       Potential energy  (eV) =    -403.645430       -381.733269
       Total energy      (eV) =    -403.231454       -381.289060
       Temperature       (K)  =      50.835745         54.548455
       Pressure         (GPa) =      72.201057         86.478269
  ** Time :            0.11500 ps :
     Properties:                   Instantaneous       Averaged
       Kinetic energy    (eV) =       0.413521          0.442875
       Potential energy  (eV) =    -404.344679       -382.716374
       Total energy      (eV) =    -403.931158       -382.273499
       Temperature       (K)  =      50.779976         54.384608
       Pressure         (GPa) =      71.690283         85.835313
  ** Time :            0.12000 ps :
     Properties:                   Instantaneous       Averaged
       Kinetic energy    (eV) =       0.412977          0.441629
       Potential energy  (eV) =    -404.995220       -383.644659
       Total energy      (eV) =    -404.582242       -383.203030
       Temperature       (K)  =      50.713207         54.231633
       Pressure         (GPa) =      71.210801         85.225959
  ** Time :            0.12500 ps :
     Properties:                   Instantaneous       Averaged
       Kinetic energy    (eV) =       0.412390          0.440460
       Potential energy  (eV) =    -405.577387       -384.521968
       Total energy      (eV) =    -405.164996       -384.081509
       Temperature       (K)  =      50.641126         54.088013
       Pressure         (GPa) =      70.795651         84.648746
  ** Time :            0.13000 ps :
     Properties:                   Instantaneous       Averaged
       Kinetic energy    (eV) =       0.411888          0.439361
       Potential energy  (eV) =    -406.101870       -385.351965
       Total energy      (eV) =    -405.689982       -384.912604
       Temperature       (K)  =      50.579425         53.953067
       Pressure         (GPa) =      70.014902         84.085906
  ** Time :            0.13500 ps :
     Properties:                   Instantaneous       Averaged
       Kinetic energy    (eV) =       0.411476          0.438328
       Potential energy  (eV) =    -406.577604       -386.138099
       Total energy      (eV) =    -406.166128       -385.699771
       Temperature       (K)  =      50.528839         53.826244
       Pressure         (GPa) =      69.406030         83.542207
  ** Time :            0.14000 ps :
     Properties:                   Instantaneous       Averaged
       Kinetic energy    (eV) =       0.410912          0.437349
       Potential energy  (eV) =    -407.004103       -386.883314
       Total energy      (eV) =    -406.593192       -386.445965
       Temperature       (K)  =      50.459570         53.706006
       Pressure         (GPa) =      69.049805         83.024621
  ** Time :            0.14500 ps :
     Properties:                   Instantaneous       Averaged
       Kinetic energy    (eV) =       0.410359          0.436418
       Potential energy  (eV) =    -407.372883       -387.589851
       Total energy      (eV) =    -406.962524       -387.153433
       Temperature       (K)  =      50.391642         53.591717
       Pressure         (GPa) =      69.167891         82.546803
  ** Time :            0.15000 ps :
     Properties:                   Instantaneous       Averaged
       Kinetic energy    (eV) =       0.410186          0.435544
       Potential energy  (eV) =    -407.699744       -388.260181
       Total energy      (eV) =    -407.289558       -387.824637
       Temperature       (K)  =      50.370409         53.484340
       Pressure         (GPa) =      68.688288         82.084853
  ** Time :            0.15500 ps :
     Properties:                   Instantaneous       Averaged
       Kinetic energy    (eV) =       0.409909          0.434717
       Potential energy  (eV) =    -407.999621       -388.896937
       Total energy      (eV) =    -407.589712       -388.462220
       Temperature       (K)  =      50.336415         53.382794
       Pressure         (GPa) =      68.429242         81.644349
  ** Time :            0.16000 ps :
     Properties:                   Instantaneous       Averaged
       Kinetic energy    (eV) =       0.409572          0.433931
       Potential energy  (eV) =    -408.277652       -389.502584
       Total energy      (eV) =    -407.868080       -389.068653
       Temperature       (K)  =      50.295068         53.286303
       Pressure         (GPa) =      68.446787         81.231925
  ** Time :            0.16500 ps :
     Properties:                   Instantaneous       Averaged
       Kinetic energy    (eV) =       0.409452          0.433189
       Potential energy  (eV) =    -408.529655       -390.079162
       Total energy      (eV) =    -408.120203       -389.645973
       Temperature       (K)  =      50.280286         53.195211
       Pressure         (GPa) =      68.335873         80.841136
  ** Time :            0.17000 ps :
     Properties:                   Instantaneous       Averaged
       Kinetic energy    (eV) =       0.409204          0.432484
       Potential energy  (eV) =    -408.756431       -390.628493
       Total energy      (eV) =    -408.347227       -390.196010
       Temperature       (K)  =      50.249825         53.108582
       Pressure         (GPa) =      67.946215         80.461873
  ** Time :            0.17500 ps :
     Properties:                   Instantaneous       Averaged
       Kinetic energy    (eV) =       0.408927          0.431811
       Potential energy  (eV) =    -408.959188       -391.152227
       Total energy      (eV) =    -408.550261       -390.720417
       Temperature       (K)  =      50.215785         53.025931
       Pressure         (GPa) =      67.712705         80.097611
  ** Time :            0.18000 ps :
     Properties:                   Instantaneous       Averaged
       Kinetic energy    (eV) =       0.408523          0.431164
       Potential energy  (eV) =    -409.116918       -391.651247
       Total energy      (eV) =    -408.708395       -391.220083
       Temperature       (K)  =      50.166168         52.946493
       Pressure         (GPa) =      68.105013         79.764484
  ** Time :            0.18500 ps :
     Properties:                   Instantaneous       Averaged
       Kinetic energy    (eV) =       0.408515          0.430552
       Potential energy  (eV) =    -409.257678       -392.127096
       Total energy      (eV) =    -408.849163       -391.696544
       Temperature       (K)  =      50.165233         52.871324
       Pressure         (GPa) =      67.678494         79.437835
  ** Time :            0.19000 ps :
     Properties:                   Instantaneous       Averaged
       Kinetic energy    (eV) =       0.409221          0.429990
       Potential energy  (eV) =    -409.496100       -392.584175
       Total energy      (eV) =    -409.086879       -392.154185
       Temperature       (K)  =      50.251873         52.802391
       Pressure         (GPa) =      67.403519         79.121143
  ** Time :            0.19500 ps :
     Properties:                   Instantaneous       Averaged
       Kinetic energy    (eV) =       0.411393          0.429514
       Potential energy  (eV) =    -410.087786       -393.032986
       Total energy      (eV) =    -409.676393       -392.603472
       Temperature       (K)  =      50.518617         52.743833
       Pressure         (GPa) =      67.707087         78.828475
  ** Time :            0.20000 ps :
     Properties:                   Instantaneous       Averaged
       Kinetic energy    (eV) =       0.410235          0.429032
       Potential energy  (eV) =    -410.009133       -393.457389
       Total energy      (eV) =    -409.598898       -393.028358
       Temperature       (K)  =      50.376455         52.684648
       Pressure         (GPa) =      67.875689         78.554655
  ** Time :            0.20500 ps :
     Properties:                   Instantaneous       Averaged
       Kinetic energy    (eV) =       0.408370          0.428528
       Potential energy  (eV) =    -410.225943       -393.866379
       Total energy      (eV) =    -409.817573       -393.437851
       Temperature       (K)  =      50.147463         52.622766
       Pressure         (GPa) =      68.053079         78.298519
  ** Time :            0.21000 ps :
     Properties:                   Instantaneous       Averaged
       Kinetic energy    (eV) =       0.408270          0.428045
       Potential energy  (eV) =    -410.342049       -394.258656
       Total energy      (eV) =    -409.933779       -393.830611
       Temperature       (K)  =      50.135145         52.563537
       Pressure         (GPa) =      67.275006         78.036054
  ** Time :            0.21500 ps :
     Properties:                   Instantaneous       Averaged
       Kinetic energy    (eV) =       0.407825          0.427575
       Potential energy  (eV) =    -410.438784       -394.634938
       Total energy      (eV) =    -410.030959       -394.207363
       Temperature       (K)  =      50.080525         52.505792
       Pressure         (GPa) =      67.544914         77.792074
  ** Time :            0.22000 ps :
     Properties:                   Instantaneous       Averaged
       Kinetic energy    (eV) =       0.407762          0.427125
       Potential energy  (eV) =    -410.498359       -394.995471
       Total energy      (eV) =    -410.090597       -394.568346
       Temperature       (K)  =      50.072756         52.450496
       Pressure         (GPa) =      67.494626         77.558042
  ** Time :            0.22500 ps :
     Properties:                   Instantaneous       Averaged
       Kinetic energy    (eV) =       0.407389          0.426686
       Potential energy  (eV) =    -410.540264       -395.340911
       Total energy      (eV) =    -410.132875       -394.914224
       Temperature       (K)  =      50.026955         52.396639
       Pressure         (GPa) =      68.020060         77.346086
  ** Time :            0.23000 ps :
     Properties:                   Instantaneous       Averaged
       Kinetic energy    (eV) =       0.406310          0.426243
       Potential energy  (eV) =    -410.506290       -395.670593
       Total energy      (eV) =    -410.099980       -395.244349
       Temperature       (K)  =      49.894479         52.342245
       Pressure         (GPa) =      66.615278         77.112808
  ** Time :            0.23500 ps :
     Properties:                   Instantaneous       Averaged
       Kinetic energy    (eV) =       0.406337          0.425820
       Potential energy  (eV) =    -410.417953       -395.984366
       Total energy      (eV) =    -410.011616       -395.558547
       Temperature       (K)  =      49.897736         52.290234
       Pressure         (GPa) =      67.278725         76.903572
  ** Time :            0.24000 ps :
     Properties:                   Instantaneous       Averaged
       Kinetic energy    (eV) =       0.407026          0.425428
       Potential energy  (eV) =    -410.366169       -396.283987
       Total energy      (eV) =    -409.959143       -395.858559
       Temperature       (K)  =      49.982348         52.242153
       Pressure         (GPa) =      67.079961         76.698914
  ** Time :            0.24500 ps :
     Properties:                   Instantaneous       Averaged
       Kinetic energy    (eV) =       0.407245          0.425057
       Potential energy  (eV) =    -410.363104       -396.571316
       Total energy      (eV) =    -409.955859       -396.146259
       Temperature       (K)  =      50.009303         52.196584
       Pressure         (GPa) =      66.596096         76.492734
  ** Time :            0.25000 ps :
     Properties:                   Instantaneous       Averaged
       Kinetic energy    (eV) =       0.413760          0.424831
       Potential energy  (eV) =    -410.649533       -396.852880
       Total energy      (eV) =    -410.235774       -396.428049
       Temperature       (K)  =      50.809293         52.168839
       Pressure         (GPa) =      65.140911         76.265697
  ** Time :            0.25500 ps :
     Properties:                   Instantaneous       Averaged
       Kinetic energy    (eV) =       0.415695          0.424652
       Potential energy  (eV) =    -411.984475       -397.149578
       Total energy      (eV) =    -411.568780       -396.724926
       Temperature       (K)  =      51.046886         52.146840
       Pressure         (GPa) =      65.010613         76.045009
  ** Time :            0.26000 ps :
     Properties:                   Instantaneous       Averaged
       Kinetic energy    (eV) =       0.409272          0.424356
       Potential energy  (eV) =    -412.429175       -397.443417
       Total energy      (eV) =    -412.019903       -397.019061
       Temperature       (K)  =      50.258183         52.110519
       Pressure         (GPa) =      65.452679         75.841311
  ** Time :            0.26500 ps :
     Properties:                   Instantaneous       Averaged
       Kinetic energy    (eV) =       0.409884          0.424083
       Potential energy  (eV) =    -412.650213       -397.730337
       Total energy      (eV) =    -412.240329       -397.306254
       Temperature       (K)  =      50.333345         52.076988
       Pressure         (GPa) =      65.948158         75.654647
  ** Time :            0.27000 ps :
     Properties:                   Instantaneous       Averaged
       Kinetic energy    (eV) =       0.409842          0.423819
       Potential energy  (eV) =    -412.949467       -398.012173
       Total energy      (eV) =    -412.539626       -397.588354
       Temperature       (K)  =      50.328132         52.044601
       Pressure         (GPa) =      64.766624         75.453017
  ** Time :            0.27500 ps :
     Properties:                   Instantaneous       Averaged
       Kinetic energy    (eV) =       0.408688          0.423544
       Potential energy  (eV) =    -413.163309       -398.287648
       Total energy      (eV) =    -412.754621       -397.864104
       Temperature       (K)  =      50.186479         52.010817
       Pressure         (GPa) =      65.697280         75.275640
  ** Time :            0.28000 ps :
     Properties:                   Instantaneous       Averaged
       Kinetic energy    (eV) =       0.407865          0.423264
       Potential energy  (eV) =    -413.290644       -398.555559
       Total energy      (eV) =    -412.882779       -398.132295
       Temperature       (K)  =      50.085399         51.976435
       Pressure         (GPa) =      65.367637         75.098712
  ** Time :            0.28500 ps :
     Properties:                   Instantaneous       Averaged
       Kinetic energy    (eV) =       0.407163          0.422982
       Potential energy  (eV) =    -413.332473       -398.814803
       Total energy      (eV) =    -412.925310       -398.391821
       Temperature       (K)  =      49.999244         51.941747
       Pressure         (GPa) =      65.459925         74.929610
  ** Time :            0.29000 ps :
     Properties:                   Instantaneous       Averaged
       Kinetic energy    (eV) =       0.406646          0.422700
       Potential energy  (eV) =    -413.324894       -399.064977
       Total energy      (eV) =    -412.918248       -398.642277
       Temperature       (K)  =      49.935712         51.907161
       Pressure         (GPa) =      65.587350         74.768537
  ** Time :            0.29500 ps :
     Properties:                   Instantaneous       Averaged
       Kinetic energy    (eV) =       0.406629          0.422428
       Potential energy  (eV) =    -413.269328       -399.305729
       Total energy      (eV) =    -412.862699       -398.883301
       Temperature       (K)  =      49.933585         51.873710
       Pressure         (GPa) =      65.534381         74.612025
  ** Time :            0.30000 ps :
     Properties:                   Instantaneous       Averaged
       Kinetic energy    (eV) =       0.405882          0.422152
       Potential energy  (eV) =    -413.175443       -399.536891
       Total energy      (eV) =    -412.769561       -399.114739
       Temperature       (K)  =      49.841962         51.839848
       Pressure         (GPa) =      66.148099         74.470960
  ** Time :            0.30500 ps :
     Properties:                   Instantaneous       Averaged
       Kinetic energy    (eV) =       0.405576          0.421880
       Potential energy  (eV) =    -413.053880       -399.758481
       Total energy      (eV) =    -412.648304       -399.336600
       Temperature       (K)  =      49.804288         51.806478
       Pressure         (GPa) =      65.086294         74.317113
  ** Time :            0.31000 ps :
     Properties:                   Instantaneous       Averaged
       Kinetic energy    (eV) =       0.405871          0.421622
       Potential energy  (eV) =    -412.931467       -399.970948
       Total energy      (eV) =    -412.525596       -399.549326
       Temperature       (K)  =      49.840566         51.774770
       Pressure         (GPa) =      66.005008         74.183047
  ** Time :            0.31500 ps :
     Properties:                   Instantaneous       Averaged
       Kinetic energy    (eV) =       0.406705          0.421385
       Potential energy  (eV) =    -412.865687       -400.175627
       Total energy      (eV) =    -412.458982       -399.754241
       Temperature       (K)  =      49.942944         51.745693
       Pressure         (GPa) =      65.469691         74.044740
  ** Time :            0.32000 ps :
     Properties:                   Instantaneous       Averaged
       Kinetic energy    (eV) =       0.408111          0.421178
       Potential energy  (eV) =    -412.820762       -400.373207
       Total energy      (eV) =    -412.412652       -399.952029
       Temperature       (K)  =      50.115586         51.720223
       Pressure         (GPa) =      65.126238         73.905388
  ** Time :            0.32500 ps :
     Properties:                   Instantaneous       Averaged
       Kinetic energy    (eV) =       0.407880          0.420973
       Potential energy  (eV) =    -412.953374       -400.566748
       Total energy      (eV) =    -412.545494       -400.145775
       Temperature       (K)  =      50.087305         51.695101
       Pressure         (GPa) =      65.028604         73.768822
  ** Time :            0.33000 ps :
     Properties:                   Instantaneous       Averaged
       Kinetic energy    (eV) =       0.408248          0.420780
       Potential energy  (eV) =    -413.047089       -400.755844
       Total energy      (eV) =    -412.638841       -400.335064
       Temperature       (K)  =      50.132494         51.671425
       Pressure         (GPa) =      64.454428         73.627695
  ** Time :            0.33500 ps :
     Properties:                   Instantaneous       Averaged
       Kinetic energy    (eV) =       0.407724          0.420586
       Potential energy  (eV) =    -413.110879       -400.940248
       Total energy      (eV) =    -412.703155       -400.519662
       Temperature       (K)  =      50.068074         51.647494
       Pressure         (GPa) =      65.335718         73.503934
  ** Time :            0.34000 ps :
     Properties:                   Instantaneous       Averaged
       Kinetic energy    (eV) =       0.407726          0.420396
       Potential energy  (eV) =    -413.151707       -401.119828
       Total energy      (eV) =    -412.743980       -400.699431
       Temperature       (K)  =      50.068403         51.624272
       Pressure         (GPa) =      65.756675         73.390004
  ** Time :            0.34500 ps :
     Properties:                   Instantaneous       Averaged
       Kinetic energy    (eV) =       0.407392          0.420208
       Potential energy  (eV) =    -413.221665       -401.295217
       Total energy      (eV) =    -412.814272       -400.875009
       Temperature       (K)  =      50.027391         51.601129
       Pressure         (GPa) =      65.706278         73.278645
  ** Time :            0.35000 ps :
     Properties:                   Instantaneous       Averaged
       Kinetic energy    (eV) =       0.407415          0.420025
       Potential energy  (eV) =    -413.237947       -401.465827
       Total energy      (eV) =    -412.830533       -401.045802
       Temperature       (K)  =      50.030103         51.578686
       Pressure         (GPa) =      66.028473         73.175072
  ** Time :            0.35500 ps :
     Properties:                   Instantaneous       Averaged
       Kinetic energy    (eV) =       0.406493          0.419835
       Potential energy  (eV) =    -413.223354       -401.631426
       Total energy      (eV) =    -412.816861       -401.211591
       Temperature       (K)  =      49.916910         51.555281
       Pressure         (GPa) =      65.606307         73.068469
  ** Time :            0.36000 ps :
     Properties:                   Instantaneous       Averaged
       Kinetic energy    (eV) =       0.406234          0.419646
       Potential energy  (eV) =    -413.132494       -401.791163
       Total energy      (eV) =    -412.726260       -401.371517
       Temperature       (K)  =      49.885187         51.532085
       Pressure         (GPa) =      66.378079         72.975547
  ** Time :            0.36500 ps :
     Properties:                   Instantaneous       Averaged
       Kinetic energy    (eV) =       0.406257          0.419462
       Potential energy  (eV) =    -413.043798       -401.945309
       Total energy      (eV) =    -412.637542       -401.525847
       Temperature       (K)  =      49.887913         51.509562
       Pressure         (GPa) =      65.708422         72.875998
  ** Time :            0.37000 ps :
     Properties:                   Instantaneous       Averaged
       Kinetic energy    (eV) =       0.406868          0.419292
       Potential energy  (eV) =    -412.968633       -402.094273
       Total energy      (eV) =    -412.561765       -401.674981
       Temperature       (K)  =      49.962983         51.488662
       Pressure         (GPa) =      66.632109         72.791621
  ** Time :            0.37500 ps :
     Properties:                   Instantaneous       Averaged
       Kinetic energy    (eV) =       0.407006          0.419128
       Potential energy  (eV) =    -412.990491       -402.239556
       Total energy      (eV) =    -412.583486       -401.820427
       Temperature       (K)  =      49.979909         51.468545
       Pressure         (GPa) =      66.099611         72.702394
  ** Time :            0.38000 ps :
     Properties:                   Instantaneous       Averaged
       Kinetic energy    (eV) =       0.407512          0.418975
       Potential energy  (eV) =    -413.013603       -402.381319
       Total energy      (eV) =    -412.606092       -401.962344
       Temperature       (K)  =      50.042011         51.449775
       Pressure         (GPa) =      66.451944         72.620151
  ** Time :            0.38500 ps :
     Properties:                   Instantaneous       Averaged
       Kinetic energy    (eV) =       0.407102          0.418821
       Potential energy  (eV) =    -413.032838       -402.519651
       Total energy      (eV) =    -412.625737       -402.100830
       Temperature       (K)  =      49.991690         51.430839
       Pressure         (GPa) =      66.771194         72.544191
  ** Time :            0.39000 ps :
     Properties:                   Instantaneous       Averaged
       Kinetic energy    (eV) =       0.407827          0.418680
       Potential energy  (eV) =    -413.071818       -402.654935
       Total energy      (eV) =    -412.663991       -402.236255
       Temperature       (K)  =      50.080800         51.413531
       Pressure         (GPa) =      65.487185         72.453716
  ** Time :            0.39500 ps :
     Properties:                   Instantaneous       Averaged
       Kinetic energy    (eV) =       0.407486          0.418539
       Potential energy  (eV) =    -413.119835       -402.787402
       Total energy      (eV) =    -412.712348       -402.368863
       Temperature       (K)  =      50.038936         51.396131
       Pressure         (GPa) =      64.824874         72.357149
  ** Time :            0.40000 ps :
     Properties:                   Instantaneous       Averaged
       Kinetic energy    (eV) =       0.407661          0.418403
       Potential energy  (eV) =    -413.154228       -402.916987
       Total energy      (eV) =    -412.746567       -402.498585
       Temperature       (K)  =      50.060361         51.379434
       Pressure         (GPa) =      65.124670         72.266743
  ** Time :            0.40500 ps :
     Properties:                   Instantaneous       Averaged
       Kinetic energy    (eV) =       0.406775          0.418259
       Potential energy  (eV) =    -413.190499       -403.043821
       Total energy      (eV) =    -412.783724       -402.625562
       Temperature       (K)  =      49.951610         51.361806
       Pressure         (GPa) =      64.171127         72.166797
  ** Time :            0.41000 ps :
     Properties:                   Instantaneous       Averaged
       Kinetic energy    (eV) =       0.407044          0.418122
       Potential energy  (eV) =    -413.149018       -403.167055
       Total energy      (eV) =    -412.741974       -402.748933
       Temperature       (K)  =      49.984546         51.345011
       Pressure         (GPa) =      63.762352         72.064303
  ** Time :            0.41500 ps :
     Properties:                   Instantaneous       Averaged
       Kinetic energy    (eV) =       0.405890          0.417975
       Potential energy  (eV) =    -413.093045       -403.286645
       Total energy      (eV) =    -412.687155       -402.868670
       Temperature       (K)  =      49.842845         51.326912
       Pressure         (GPa) =      64.899930         71.977986
  ** Time :            0.42000 ps :
     Properties:                   Instantaneous       Averaged
       Kinetic energy    (eV) =       0.406783          0.417842
       Potential energy  (eV) =    -412.969965       -403.401923
       Total energy      (eV) =    -412.563183       -402.984081
       Temperature       (K)  =      49.952524         51.310550
       Pressure         (GPa) =      64.413485         71.887932
  ** Time :            0.42500 ps :
     Properties:                   Instantaneous       Averaged
       Kinetic energy    (eV) =       0.406946          0.417714
       Potential energy  (eV) =    -412.969433       -403.514482
       Total energy      (eV) =    -412.562486       -403.096768
       Temperature       (K)  =      49.972614         51.294810
       Pressure         (GPa) =      65.399042         71.811592
  ** Time :            0.43000 ps :
     Properties:                   Instantaneous       Averaged
       Kinetic energy    (eV) =       0.407853          0.417599
       Potential energy  (eV) =    -413.011165       -403.624908
       Total energy      (eV) =    -412.603312       -403.207309
       Temperature       (K)  =      50.083944         51.280730
       Pressure         (GPa) =      65.065246         71.733146
  ** Time :            0.43500 ps :
     Properties:                   Instantaneous       Averaged
       Kinetic energy    (eV) =       0.407364          0.417481
       Potential energy  (eV) =    -413.100343       -403.733821
       Total energy      (eV) =    -412.692978       -403.316340
       Temperature       (K)  =      50.023935         51.266284
       Pressure         (GPa) =      65.890653         71.665991
  ** Time :            0.44000 ps :
     Properties:                   Instantaneous       Averaged
       Kinetic energy    (eV) =       0.406658          0.417358
       Potential energy  (eV) =    -413.042721       -403.839604
       Total energy      (eV) =    -412.636063       -403.422246
       Temperature       (K)  =      49.937198         51.251181
       Pressure         (GPa) =      67.156751         71.614750
  ** Time :            0.44500 ps :
     Properties:                   Instantaneous       Averaged
       Kinetic energy    (eV) =       0.407592          0.417249
       Potential energy  (eV) =    -413.037742       -403.942954
       Total energy      (eV) =    -412.630150       -403.525706
       Temperature       (K)  =      50.051859         51.237705
       Pressure         (GPa) =      67.014832         71.563065
  ** Time :            0.45000 ps :
     Properties:                   Instantaneous       Averaged
       Kinetic energy    (eV) =       0.406926          0.417134
       Potential energy  (eV) =    -413.100179       -404.044701
       Total energy      (eV) =    -412.693253       -403.627567
       Temperature       (K)  =      49.970049         51.223620
       Pressure         (GPa) =      66.733859         71.509408
  ** Time :            0.45500 ps :
     Properties:                   Instantaneous       Averaged
       Kinetic energy    (eV) =       0.407849          0.417032
       Potential energy  (eV) =    -413.087316       -404.144071
       Total energy      (eV) =    -412.679467       -403.727039
       Temperature       (K)  =      50.083439         51.211091
       Pressure         (GPa) =      66.854807         71.458258
  ** Time :            0.46000 ps :
     Properties:                   Instantaneous       Averaged
       Kinetic energy    (eV) =       0.408020          0.416934
       Potential energy  (eV) =    -413.149035       -404.241951
       Total energy      (eV) =    -412.741016       -403.825017
       Temperature       (K)  =      50.104393         51.199062
       Pressure         (GPa) =      66.710079         71.406647
  ** Time :            0.46500 ps :
     Properties:                   Instantaneous       Averaged
       Kinetic energy    (eV) =       0.407265          0.416830
       Potential energy  (eV) =    -413.165780       -404.337906
       Total energy      (eV) =    -412.758515       -403.921076
       Temperature       (K)  =      50.011724         51.186294
       Pressure         (GPa) =      65.627089         71.344502
  ** Time :            0.47000 ps :
     Properties:                   Instantaneous       Averaged
       Kinetic energy    (eV) =       0.407225          0.416728
       Potential energy  (eV) =    -413.184531       -404.432019
       Total energy      (eV) =    -412.777306       -404.015291
       Temperature       (K)  =      50.006820         51.173747
       Pressure         (GPa) =      65.425543         71.281534
  ** Time :            0.47500 ps :
     Properties:                   Instantaneous       Averaged
       Kinetic energy    (eV) =       0.406405          0.416619
       Potential energy  (eV) =    -413.137793       -404.523659
       Total energy      (eV) =    -412.731388       -404.107039
       Temperature       (K)  =      49.906079         51.160403
       Pressure         (GPa) =      64.435002         71.209465
  ** Time :            0.48000 ps :
     Properties:                   Instantaneous       Averaged
       Kinetic energy    (eV) =       0.407414          0.416523
       Potential energy  (eV) =    -413.131889       -404.613328
       Total energy      (eV) =    -412.724476       -404.196804
       Temperature       (K)  =      50.030032         51.148628
       Pressure         (GPa) =      64.173600         71.136175
  ** Time :            0.48500 ps :
     Properties:                   Instantaneous       Averaged
       Kinetic energy    (eV) =       0.406445          0.416419
       Potential energy  (eV) =    -413.121799       -404.701044
       Total energy      (eV) =    -412.715354       -404.284625
       Temperature       (K)  =      49.911002         51.135869
       Pressure         (GPa) =      62.920567         71.051478
  ** Time :            0.49000 ps :
     Properties:                   Instantaneous       Averaged
       Kinetic energy    (eV) =       0.406456          0.416318
       Potential energy  (eV) =    -413.040183       -404.786137
       Total energy      (eV) =    -412.633727       -404.369819
       Temperature       (K)  =      49.912359         51.123384
       Pressure         (GPa) =      64.367850         70.983278
  ** Time :            0.49500 ps :
     Properties:                   Instantaneous       Averaged
       Kinetic energy    (eV) =       0.406208          0.416215
       Potential energy  (eV) =    -412.956406       -404.868665
       Total energy      (eV) =    -412.550198       -404.452450
       Temperature       (K)  =      49.881989         51.110845
       Pressure         (GPa) =      64.774469         70.920563
  ** Time :            0.50000 ps :
     Properties:                   Instantaneous       Averaged
       Kinetic energy    (eV) =       0.406971          0.416123
       Potential energy  (eV) =    -412.929745       -404.949276
       Total energy      (eV) =    -412.522774       -404.533153
       Temperature       (K)  =      49.975650         51.099493
       Pressure         (GPa) =      65.557639         70.866933
  ** Time :            0.50500 ps :
     Properties:                   Instantaneous       Averaged
       Kinetic energy    (eV) =       0.408047          0.416043
       Potential energy  (eV) =    -412.953035       -405.028521
       Total energy      (eV) =    -412.544987       -404.612478
       Temperature       (K)  =      50.107826         51.089675
       Pressure         (GPa) =      66.098094         70.819717
  ** Time :            0.51000 ps :
     Properties:                   Instantaneous       Averaged
       Kinetic energy    (eV) =       0.407966          0.415964
       Potential energy  (eV) =    -413.072395       -405.107382
       Total energy      (eV) =    -412.664429       -404.691419
       Temperature       (K)  =      50.097829         51.079951
       Pressure         (GPa) =      65.600883         70.768552
  ** Time :            0.51500 ps :
     Properties:                   Instantaneous       Averaged
       Kinetic energy    (eV) =       0.407329          0.415880
       Potential energy  (eV) =    -413.115459       -405.185131
       Total energy      (eV) =    -412.708129       -404.769251
       Temperature       (K)  =      50.019646         51.069657
       Pressure         (GPa) =      65.844156         70.720742
  ** Time :            0.52000 ps :
     Properties:                   Instantaneous       Averaged
       Kinetic energy    (eV) =       0.407245          0.415797
       Potential energy  (eV) =    -413.177348       -405.261979
       Total energy      (eV) =    -412.770103       -404.846182
       Temperature       (K)  =      50.009304         51.059461
       Pressure         (GPa) =      65.532084         70.670851
  ** Time :            0.52500 ps :
     Properties:                   Instantaneous       Averaged
       Kinetic energy    (eV) =       0.406832          0.415712
       Potential energy  (eV) =    -413.165506       -405.337251
       Total energy      (eV) =    -412.758674       -404.921539
       Temperature       (K)  =      49.958603         51.048976
       Pressure         (GPa) =      66.441545         70.630572
  ** Time :            0.53000 ps :
     Properties:                   Instantaneous       Averaged
       Kinetic energy    (eV) =       0.406885          0.415628
       Potential energy  (eV) =    -413.166503       -405.411112
       Total energy      (eV) =    -412.759618       -404.995483
       Temperature       (K)  =      49.965041         51.038751
       Pressure         (GPa) =      65.975634         70.586658
  ** Time :            0.53500 ps :
     Properties:                   Instantaneous       Averaged
       Kinetic energy    (eV) =       0.406624          0.415544
       Potential energy  (eV) =    -413.084119       -405.482822
       Total energy      (eV) =    -412.677494       -405.067278
       Temperature       (K)  =      49.933083         51.028417
       Pressure         (GPa) =      65.396650         70.538153
  ** Time :            0.54000 ps :
     Properties:                   Instantaneous       Averaged
       Kinetic energy    (eV) =       0.407654          0.415471
       Potential energy  (eV) =    -413.063455       -405.553013
       Total energy      (eV) =    -412.655801       -405.137542
       Temperature       (K)  =      50.059470         51.019446
       Pressure         (GPa) =      67.126148         70.506560
  ** Time :            0.54500 ps :
     Properties:                   Instantaneous       Averaged
       Kinetic energy    (eV) =       0.406475          0.415389
       Potential energy  (eV) =    -413.071935       -405.621994
       Total energy      (eV) =    -412.665460       -405.206605
       Temperature       (K)  =      49.914765         51.009311
       Pressure         (GPa) =      66.445644         70.469304
  ** Time :            0.55000 ps :
     Properties:                   Instantaneous       Averaged
       Kinetic energy    (eV) =       0.407321          0.415315
       Potential energy  (eV) =    -413.022932       -405.689275
       Total energy      (eV) =    -412.615611       -405.273960
       Temperature       (K)  =      50.018587         51.000304
       Pressure         (GPa) =      66.140601         70.429952
  ** Time :            0.55500 ps :
     Properties:                   Instantaneous       Averaged
       Kinetic energy    (eV) =       0.408023          0.415250
       Potential energy  (eV) =    -413.100742       -405.756045
       Total energy      (eV) =    -412.692718       -405.340796
       Temperature       (K)  =      50.104881         50.992237
       Pressure         (GPa) =      66.271222         70.392486
  ** Time :            0.56000 ps :
     Properties:                   Instantaneous       Averaged
       Kinetic energy    (eV) =       0.407429          0.415180
       Potential energy  (eV) =    -413.162574       -405.822175
       Total energy      (eV) =    -412.755145       -405.406995
       Temperature       (K)  =      50.031883         50.983663
       Pressure         (GPa) =      65.779504         70.351299
  ** Time :            0.56500 ps :
     Properties:                   Instantaneous       Averaged
       Kinetic energy    (eV) =       0.406643          0.415104
       Potential energy  (eV) =    -413.165574       -405.887161
       Total energy      (eV) =    -412.758931       -405.472056
       Temperature       (K)  =      49.935396         50.974386
       Pressure         (GPa) =      65.234713         70.306020
  ** Time :            0.57000 ps :
     Properties:                   Instantaneous       Averaged
       Kinetic energy    (eV) =       0.406586          0.415030
       Potential energy  (eV) =    -413.107275       -405.950495
       Total energy      (eV) =    -412.700688       -405.535466
       Temperature       (K)  =      49.928419         50.965211
       Pressure         (GPa) =      66.051334         70.268698
  ** Time :            0.57500 ps :
     Properties:                   Instantaneous       Averaged
       Kinetic energy    (eV) =       0.406345          0.414954
       Potential energy  (eV) =    -413.015985       -406.011934
       Total energy      (eV) =    -412.609640       -405.596980
       Temperature       (K)  =      49.898758         50.955937
       Pressure         (GPa) =      65.773051         70.229605
  ** Time :            0.58000 ps :
     Properties:                   Instantaneous       Averaged
       Kinetic energy    (eV) =       0.408011          0.414894
       Potential energy  (eV) =    -413.020759       -406.072355
       Total energy      (eV) =    -412.612748       -405.657461
       Temperature       (K)  =      50.103297         50.948587
       Pressure         (GPa) =      65.170882         70.185995
  ** Time :            0.58500 ps :
     Properties:                   Instantaneous       Averaged
       Kinetic energy    (eV) =       0.407037          0.414827
       Potential energy  (eV) =    -413.061368       -406.132090
       Total energy      (eV) =    -412.654332       -405.717263
       Temperature       (K)  =      49.983679         50.940340
       Pressure         (GPa) =      64.380209         70.136373
  ** Time :            0.59000 ps :
     Properties:                   Instantaneous       Averaged
       Kinetic energy    (eV) =       0.407682          0.414766
       Potential energy  (eV) =    -413.092142       -406.191074
       Total energy      (eV) =    -412.684460       -405.776307
       Temperature       (K)  =      50.062979         50.932905
       Pressure         (GPa) =      64.811029         70.091243
  ** Time :            0.59500 ps :
     Properties:                   Instantaneous       Averaged
       Kinetic energy    (eV) =       0.406443          0.414696
       Potential energy  (eV) =    -413.078782       -406.248954
       Total energy      (eV) =    -412.672339       -405.834257
       Temperature       (K)  =      49.910854         50.924316
       Pressure         (GPa) =      65.830442         70.055438
  ** Time :            0.60000 ps :
     Properties:                   Instantaneous       Averaged
       Kinetic energy    (eV) =       0.407262          0.414635
       Potential energy  (eV) =    -413.052145       -406.305647
       Total energy      (eV) =    -412.644883       -405.891012
       Temperature       (K)  =      50.011374         50.916708
       Pressure         (GPa) =      65.829862         70.020225
  ** Time :            0.60500 ps :
     Properties:                   Instantaneous       Averaged
       Kinetic energy    (eV) =       0.407458          0.414575
       Potential energy  (eV) =    -413.088384       -406.361702
       Total energy      (eV) =    -412.680926       -405.947127
       Temperature       (K)  =      50.035452         50.909425
       Pressure         (GPa) =      65.920467         69.986343
  ** Time :            0.61000 ps :
     Properties:                   Instantaneous       Averaged
       Kinetic energy    (eV) =       0.406986          0.414513
       Potential energy  (eV) =    -413.116577       -406.417070
       Total energy      (eV) =    -412.709591       -406.002557
       Temperature       (K)  =      49.977468         50.901786
       Pressure         (GPa) =      64.700706         69.943018
  ** Time :            0.61500 ps :
     Properties:                   Instantaneous       Averaged
       Kinetic energy    (eV) =       0.406727          0.414450
       Potential energy  (eV) =    -413.079420       -406.471236
       Total energy      (eV) =    -412.672692       -406.056786
       Temperature       (K)  =      49.945732         50.894013
       Pressure         (GPa) =      65.348529         69.905664
  ** Time :            0.62000 ps :
     Properties:                   Instantaneous       Averaged
       Kinetic energy    (eV) =       0.407413          0.414393
       Potential energy  (eV) =    -413.082424       -406.524552
       Total energy      (eV) =    -412.675011       -406.110159
       Temperature       (K)  =      50.029957         50.887045
       Pressure         (GPa) =      66.046419         69.874541
  ** Time :            0.62500 ps :
     Properties:                   Instantaneous       Averaged
       Kinetic energy    (eV) =       0.407351          0.414337
       Potential energy  (eV) =    -413.128067       -406.577380
       Total energy      (eV) =    -412.720716       -406.163043
       Temperature       (K)  =      50.022355         50.880128
       Pressure         (GPa) =      66.117555         69.844486
  ** Time :            0.63000 ps :
     Properties:                   Instantaneous       Averaged
       Kinetic energy    (eV) =       0.407224          0.414280
       Potential energy  (eV) =    -413.150435       -406.629547
       Total energy      (eV) =    -412.743210       -406.215267
       Temperature       (K)  =      50.006762         50.873196
       Pressure         (GPa) =      65.590968         69.810727
  ** Time :            0.63500 ps :
     Properties:                   Instantaneous       Averaged
       Kinetic energy    (eV) =       0.406774          0.414221
       Potential energy  (eV) =    -413.120858       -406.680660
       Total energy      (eV) =    -412.714084       -406.266439
       Temperature       (K)  =      49.951389         50.865938
       Pressure         (GPa) =      65.705096         69.778400
  ** Time :            0.64000 ps :
     Properties:                   Instantaneous       Averaged
       Kinetic energy    (eV) =       0.406722          0.414162
       Potential energy  (eV) =    -413.102670       -406.730832
       Total energy      (eV) =    -412.695948       -406.316669
       Temperature       (K)  =      49.945070         50.858744
       Pressure         (GPa) =      65.454442         69.744619
  ** Time :            0.64500 ps :
     Properties:                   Instantaneous       Averaged
       Kinetic energy    (eV) =       0.407126          0.414108
       Potential energy  (eV) =    -413.024498       -406.779620
       Total energy      (eV) =    -412.617371       -406.365512
       Temperature       (K)  =      49.994705         50.852046
       Pressure         (GPa) =      66.016076         69.715715
  ** Time :            0.65000 ps :
     Properties:                   Instantaneous       Averaged
       Kinetic energy    (eV) =       0.406945          0.414053
       Potential energy  (eV) =    -413.084404       -406.828118
       Total energy      (eV) =    -412.677459       -406.414065
       Temperature       (K)  =      49.972392         50.845279
       Pressure         (GPa) =      65.444636         69.682861
  ** Time :            0.65500 ps :
     Properties:                   Instantaneous       Averaged
       Kinetic energy    (eV) =       0.407393          0.414002
       Potential energy  (eV) =    -413.058939       -406.875682
       Total energy      (eV) =    -412.651546       -406.461680
       Temperature       (K)  =      50.027459         50.839036
       Pressure         (GPa) =      64.995861         69.647082
  ** Time :            0.66000 ps :
     Properties:                   Instantaneous       Averaged
       Kinetic energy    (eV) =       0.407166          0.413950
       Potential energy  (eV) =    -413.100932       -406.922843
       Total energy      (eV) =    -412.693766       -406.508892
       Temperature       (K)  =      49.999548         50.832676
       Pressure         (GPa) =      65.151927         69.613028
  ** Time :            0.66500 ps :
     Properties:                   Instantaneous       Averaged
       Kinetic energy    (eV) =       0.406768          0.413896
       Potential energy  (eV) =    -413.057406       -406.968967
       Total energy      (eV) =    -412.650638       -406.555071
       Temperature       (K)  =      49.950661         50.826045
       Pressure         (GPa) =      66.737490         69.591407
  ** Time :            0.67000 ps :
     Properties:                   Instantaneous       Averaged
       Kinetic energy    (eV) =       0.407196          0.413846
       Potential energy  (eV) =    -413.061308       -407.014432
       Total energy      (eV) =    -412.654112       -406.600586
       Temperature       (K)  =      50.003206         50.819904
       Pressure         (GPa) =      66.490290         69.568265
  ** Time :            0.67500 ps :
     Properties:                   Instantaneous       Averaged
       Kinetic energy    (eV) =       0.407237          0.413797
       Potential energy  (eV) =    -413.115486       -407.059625
       Total energy      (eV) =    -412.708249       -406.645828
       Temperature       (K)  =      50.008326         50.813892
       Pressure         (GPa) =      66.509672         69.545608
  ** Time :            0.68000 ps :
     Properties:                   Instantaneous       Averaged
       Kinetic energy    (eV) =       0.407032          0.413748
       Potential energy  (eV) =    -413.109349       -407.104109
       Total energy      (eV) =    -412.702317       -406.690361
       Temperature       (K)  =      49.983158         50.807784
       Pressure         (GPa) =      66.382492         69.522350
  ** Time :            0.68500 ps :
     Properties:                   Instantaneous       Averaged
       Kinetic energy    (eV) =       0.407340          0.413701
       Potential energy  (eV) =    -413.083878       -407.147757
       Total energy      (eV) =    -412.676538       -406.734056
       Temperature       (K)  =      50.020938         50.802041
       Pressure         (GPa) =      65.868467         69.495680
  ** Time :            0.69000 ps :
     Properties:                   Instantaneous       Averaged
       Kinetic energy    (eV) =       0.407161          0.413653
       Potential energy  (eV) =    -413.126582       -407.191081
       Total energy      (eV) =    -412.719421       -406.777428
       Temperature       (K)  =      49.998975         50.796221
       Pressure         (GPa) =      65.522582         69.466889
  ** Time :            0.69500 ps :
     Properties:                   Instantaneous       Averaged
       Kinetic energy    (eV) =       0.407229          0.413607
       Potential energy  (eV) =    -413.123457       -407.233760
       Total energy      (eV) =    -412.716228       -406.820153
       Temperature       (K)  =      50.007324         50.790546
       Pressure         (GPa) =      65.749864         69.440148
  ** Time :            0.70000 ps :
     Properties:                   Instantaneous       Averaged
       Kinetic energy    (eV) =       0.406787          0.413558
       Potential energy  (eV) =    -413.153511       -407.276044
       Total energy      (eV) =    -412.746724       -406.862486
       Temperature       (K)  =      49.953029         50.784564
       Pressure         (GPa) =      65.035437         69.408686
  ** Time :            0.70500 ps :
     Properties:                   Instantaneous       Averaged
       Kinetic energy    (eV) =       0.407117          0.413513
       Potential energy  (eV) =    -413.122365       -407.317508
       Total energy      (eV) =    -412.715248       -406.903995
       Temperature       (K)  =      49.993599         50.778954
       Pressure         (GPa) =      65.198755         69.378828
  ** Time :            0.71000 ps :
     Properties:                   Instantaneous       Averaged
       Kinetic energy    (eV) =       0.406059          0.413460
       Potential energy  (eV) =    -413.093109       -407.358181
       Total energy      (eV) =    -412.687050       -406.944721
       Temperature       (K)  =      49.863650         50.772508
       Pressure         (GPa) =      66.617418         69.359381
  ** Time :            0.71500 ps :
     Properties:                   Instantaneous       Averaged
       Kinetic energy    (eV) =       0.406951          0.413415
       Potential energy  (eV) =    -413.038419       -407.397903
       Total energy      (eV) =    -412.631468       -406.984488
       Temperature       (K)  =      49.973208         50.766919
       Pressure         (GPa) =      66.133856         69.336825
  ** Time :            0.72000 ps :
     Properties:                   Instantaneous       Averaged
       Kinetic energy    (eV) =       0.407066          0.413371
       Potential energy  (eV) =    -413.034755       -407.437048
       Total energy      (eV) =    -412.627689       -407.023677
       Temperature       (K)  =      49.987299         50.761505
       Pressure         (GPa) =      65.992870         69.313603
  ** Time :            0.72500 ps :
     Properties:                   Instantaneous       Averaged
       Kinetic energy    (eV) =       0.407739          0.413332
       Potential energy  (eV) =    -413.067237       -407.475876
       Total energy      (eV) =    -412.659498       -407.062545
       Temperature       (K)  =      50.069974         50.756735
       Pressure         (GPa) =      64.914239         69.283263
  ** Time :            0.73000 ps :
     Properties:                   Instantaneous       Averaged
       Kinetic energy    (eV) =       0.406746          0.413287
       Potential energy  (eV) =    -413.078071       -407.514248
       Total energy      (eV) =    -412.671325       -407.100961
       Temperature       (K)  =      49.947992         50.751196
       Pressure         (GPa) =      64.953835         69.253609
  ** Time :            0.73500 ps :
     Properties:                   Instantaneous       Averaged
       Kinetic energy    (eV) =       0.407101          0.413245
       Potential energy  (eV) =    -413.029406       -407.551766
       Total energy      (eV) =    -412.622305       -407.138521
       Temperature       (K)  =      49.991557         50.746028
       Pressure         (GPa) =      64.925086         69.224164
  ** Time :            0.74000 ps :
     Properties:                   Instantaneous       Averaged
       Kinetic energy    (eV) =       0.406736          0.413201
       Potential energy  (eV) =    -413.027344       -407.588763
       Total energy      (eV) =    -412.620608       -407.175562
       Temperature       (K)  =      49.946754         50.740628
       Pressure         (GPa) =      64.606216         69.192961
  ** Time :            0.74500 ps :
     Properties:                   Instantaneous       Averaged
       Kinetic energy    (eV) =       0.408009          0.413166
       Potential energy  (eV) =    -413.040617       -407.625352
       Total energy      (eV) =    -412.632607       -407.212187
       Temperature       (K)  =      50.103150         50.736350
       Pressure         (GPa) =      64.886990         69.164062
  ** Time :            0.75000 ps :
     Properties:                   Instantaneous       Averaged
       Kinetic energy    (eV) =       0.407894          0.413131
       Potential energy  (eV) =    -413.127929       -407.662036
       Total energy      (eV) =    -412.720035       -407.248906
       Temperature       (K)  =      50.088947         50.732034
       Pressure         (GPa) =      64.655076         69.134002
  ** Time :            0.75500 ps :
     Properties:                   Instantaneous       Averaged
       Kinetic energy    (eV) =       0.407632          0.413094
       Potential energy  (eV) =    -413.187497       -407.698629
       Total energy      (eV) =    -412.779865       -407.285535
       Temperature       (K)  =      50.056808         50.727562
       Pressure         (GPa) =      66.047957         69.113565
  ** Time :            0.76000 ps :
     Properties:                   Instantaneous       Averaged
       Kinetic energy    (eV) =       0.406224          0.413049
       Potential energy  (eV) =    -413.185918       -407.734729
       Total energy      (eV) =    -412.779695       -407.321680
       Temperature       (K)  =      49.883871         50.722011
       Pressure         (GPa) =      65.938017         69.092673
  ** Time :            0.76500 ps :
     Properties:                   Instantaneous       Averaged
       Kinetic energy    (eV) =       0.405873          0.413002
       Potential energy  (eV) =    -413.091211       -407.769739
       Total energy      (eV) =    -412.685338       -407.356737
       Temperature       (K)  =      49.840820         50.716252
       Pressure         (GPa) =      66.084428         69.073011
  ** Time :            0.77000 ps :
     Properties:                   Instantaneous       Averaged
       Kinetic energy    (eV) =       0.406468          0.412960
       Potential energy  (eV) =    -413.027196       -407.803878
       Total energy      (eV) =    -412.620728       -407.390919
       Temperature       (K)  =      49.913811         50.711041
       Pressure         (GPa) =      65.392917         69.049115
  ** Time :            0.77500 ps :
     Properties:                   Instantaneous       Averaged
       Kinetic energy    (eV) =       0.407856          0.412927
       Potential energy  (eV) =    -412.994453       -407.837366
       Total energy      (eV) =    -412.586597       -407.424439
       Temperature       (K)  =      50.084287         50.706998
       Pressure         (GPa) =      65.030839         69.023190
  ** Time :            0.78000 ps :
     Properties:                   Instantaneous       Averaged
       Kinetic energy    (eV) =       0.407544          0.412892
       Potential energy  (eV) =    -413.046863       -407.870760
       Total energy      (eV) =    -412.639319       -407.457868
       Temperature       (K)  =      50.046024         50.702761
       Pressure         (GPa) =      65.250642         68.999007
  ** Time :            0.78500 ps :
     Properties:                   Instantaneous       Averaged
       Kinetic energy    (eV) =       0.407430          0.412857
       Potential energy  (eV) =    -413.086579       -407.903982
       Total energy      (eV) =    -412.679149       -407.491124
       Temperature       (K)  =      50.031950         50.698488
       Pressure         (GPa) =      63.950153         68.966849
  ** Time :            0.79000 ps :
     Properties:                   Instantaneous       Averaged
       Kinetic energy    (eV) =       0.407415          0.412823
       Potential energy  (eV) =    -413.131092       -407.937065
       Total energy      (eV) =    -412.723677       -407.524242
       Temperature       (K)  =      50.030151         50.694258
       Pressure         (GPa) =      65.368441         68.944074
  ** Time :            0.79500 ps :
     Properties:                   Instantaneous       Averaged
       Kinetic energy    (eV) =       0.406853          0.412785
       Potential energy  (eV) =    -413.123228       -407.969682
       Total energy      (eV) =    -412.716375       -407.556897
       Temperature       (K)  =      49.961163         50.689647
       Pressure         (GPa) =      65.481212         68.922295
  ** Time :            0.80000 ps :
     Properties:                   Instantaneous       Averaged
       Kinetic energy    (eV) =       0.406883          0.412749
       Potential energy  (eV) =    -413.080364       -408.001624
       Total energy      (eV) =    -412.673481       -407.588875
       Temperature       (K)  =      49.964880         50.685117
       Pressure         (GPa) =      66.377428         68.906390
  ** Time :            0.80500 ps :
     Properties:                   Instantaneous       Averaged
       Kinetic energy    (eV) =       0.407239          0.412714
       Potential energy  (eV) =    -413.106669       -408.033332
       Total energy      (eV) =    -412.699430       -407.620618
       Temperature       (K)  =      50.008562         50.680915
       Pressure         (GPa) =      65.781700         68.886982
  ** Time :            0.81000 ps :
     Properties:                   Instantaneous       Averaged
       Kinetic energy    (eV) =       0.407096          0.412680
       Potential energy  (eV) =    -413.098794       -408.064601
       Total energy      (eV) =    -412.691698       -407.651921
       Temperature       (K)  =      49.991033         50.676657
       Pressure         (GPa) =      66.735763         68.873703
[...]
       Total energy      (eV) =    -412.599099       -411.830468
       Temperature       (K)  =      49.946927         50.108587
       Pressure         (GPa) =      65.326277         66.203239
  ** Time :            4.78500 ps :
     Properties:                   Instantaneous       Averaged
       Kinetic energy    (eV) =       0.408556          0.408054
       Potential energy  (eV) =    -413.042959       -412.239362
       Total energy      (eV) =    -412.634403       -411.831308
       Temperature       (K)  =      50.170248         50.108651
       Pressure         (GPa) =      67.980898         66.205096
  ** Time :            4.79000 ps :
     Properties:                   Instantaneous       Averaged
       Kinetic energy    (eV) =       0.406923          0.408053
       Potential energy  (eV) =    -413.127990       -412.240289
       Total energy      (eV) =    -412.721067       -411.832236
       Temperature       (K)  =      49.969742         50.108506
       Pressure         (GPa) =      66.808670         66.205726
  ** Time :            4.79500 ps :
     Properties:                   Instantaneous       Averaged
       Kinetic energy    (eV) =       0.407708          0.408053
       Potential energy  (eV) =    -413.133338       -412.241221
       Total energy      (eV) =    -412.725630       -411.833168
       Temperature       (K)  =      50.066144         50.108462
       Pressure         (GPa) =      66.480216         66.206013
  ** Time :            4.80000 ps :
     Properties:                   Instantaneous       Averaged
       Kinetic energy    (eV) =       0.406110          0.408051
       Potential energy  (eV) =    -413.140690       -412.242158
       Total energy      (eV) =    -412.734580       -411.834107
       Temperature       (K)  =      49.869871         50.108213
       Pressure         (GPa) =      65.723702         66.205510
  ** Time :            4.80500 ps :
     Properties:                   Instantaneous       Averaged
       Kinetic energy    (eV) =       0.407810          0.408050
       Potential energy  (eV) =    -413.090533       -412.243040
       Total energy      (eV) =    -412.682723       -411.834990
       Temperature       (K)  =      50.078641         50.108183
       Pressure         (GPa) =      63.847152         66.203056
  ** Time :            4.81000 ps :
     Properties:                   Instantaneous       Averaged
       Kinetic energy    (eV) =       0.405978          0.408048
       Potential energy  (eV) =    -413.084080       -412.243915
       Total energy      (eV) =    -412.678102       -411.835866
       Temperature       (K)  =      49.853720         50.107918
       Pressure         (GPa) =      65.401425         66.202223
  ** Time :            4.81500 ps :
     Properties:                   Instantaneous       Averaged
       Kinetic energy    (eV) =       0.407667          0.408048
       Potential energy  (eV) =    -413.000543       -412.244700
       Total energy      (eV) =    -412.592876       -411.836652
       Temperature       (K)  =      50.061110         50.107869
       Pressure         (GPa) =      66.276286         66.202300
  ** Time :            4.82000 ps :
     Properties:                   Instantaneous       Averaged
       Kinetic energy    (eV) =       0.407233          0.408047
       Potential energy  (eV) =    -413.053682       -412.245540
       Total energy      (eV) =    -412.646449       -411.837493
       Temperature       (K)  =      50.007849         50.107766
       Pressure         (GPa) =      64.246721         66.200271
  ** Time :            4.82500 ps :
     Properties:                   Instantaneous       Averaged
       Kinetic energy    (eV) =       0.407194          0.408046
       Potential energy  (eV) =    -413.071774       -412.246396
       Total energy      (eV) =    -412.664581       -411.838350
       Temperature       (K)  =      50.002960         50.107657
       Pressure         (GPa) =      64.731607         66.198749
  ** Time :            4.83000 ps :
     Properties:                   Instantaneous       Averaged
       Kinetic energy    (eV) =       0.406922          0.408045
       Potential energy  (eV) =    -413.077105       -412.247256
       Total energy      (eV) =    -412.670183       -411.839211
       Temperature       (K)  =      49.969641         50.107514
       Pressure         (GPa) =      65.159289         66.197673
  ** Time :            4.83500 ps :
     Properties:                   Instantaneous       Averaged
       Kinetic energy    (eV) =       0.407255          0.408044
       Potential energy  (eV) =    -413.072723       -412.248109
       Total energy      (eV) =    -412.665467       -411.840065
       Temperature       (K)  =      50.010556         50.107414
       Pressure         (GPa) =      65.064438         66.196501
  ** Time :            4.84000 ps :
     Properties:                   Instantaneous       Averaged
       Kinetic energy    (eV) =       0.406822          0.408043
       Potential energy  (eV) =    -413.164835       -412.249056
       Total energy      (eV) =    -412.758013       -411.841013
       Temperature       (K)  =      49.957284         50.107259
       Pressure         (GPa) =      64.937079         66.195200
  ** Time :            4.84500 ps :
     Properties:                   Instantaneous       Averaged
       Kinetic energy    (eV) =       0.406828          0.408042
       Potential energy  (eV) =    -413.165181       -412.250002
       Total energy      (eV) =    -412.758353       -411.841960
       Temperature       (K)  =      49.958065         50.107105
       Pressure         (GPa) =      65.371446         66.194350
  ** Time :            4.85000 ps :
     Properties:                   Instantaneous       Averaged
       Kinetic energy    (eV) =       0.405924          0.408039
       Potential energy  (eV) =    -413.104039       -412.250882
       Total energy      (eV) =    -412.698115       -411.842843
       Temperature       (K)  =      49.847006         50.106837
       Pressure         (GPa) =      65.806893         66.193951
  ** Time :            4.85500 ps :
     Properties:                   Instantaneous       Averaged
       Kinetic energy    (eV) =       0.407515          0.408039
       Potential energy  (eV) =    -413.126510       -412.251784
       Total energy      (eV) =    -412.718995       -411.843745
       Temperature       (K)  =      50.042428         50.106770
       Pressure         (GPa) =      66.723936         66.194497
  ** Time :            4.86000 ps :
     Properties:                   Instantaneous       Averaged
       Kinetic energy    (eV) =       0.406102          0.408037
       Potential energy  (eV) =    -413.110997       -412.252668
       Total energy      (eV) =    -412.704895       -411.844631
       Temperature       (K)  =      49.868913         50.106526
       Pressure         (GPa) =      65.259575         66.193535
  ** Time :            4.86500 ps :
     Properties:                   Instantaneous       Averaged
       Kinetic energy    (eV) =       0.407808          0.408037
       Potential energy  (eV) =    -413.057070       -412.253495
       Total energy      (eV) =    -412.649262       -411.845458
       Temperature       (K)  =      50.078462         50.106497
       Pressure         (GPa) =      65.902744         66.193236
  ** Time :            4.87000 ps :
     Properties:                   Instantaneous       Averaged
       Kinetic energy    (eV) =       0.407724          0.408036
       Potential energy  (eV) =    -413.074375       -412.254337
       Total energy      (eV) =    -412.666650       -411.846301
       Temperature       (K)  =      50.068140         50.106457
       Pressure         (GPa) =      66.460659         66.193510
  ** Time :            4.87500 ps :
     Properties:                   Instantaneous       Averaged
       Kinetic energy    (eV) =       0.406571          0.408035
       Potential energy  (eV) =    -413.089378       -412.255194
       Total energy      (eV) =    -412.682806       -411.847159
       Temperature       (K)  =      49.926540         50.106273
       Pressure         (GPa) =      65.717188         66.193022
  ** Time :            4.88000 ps :
     Properties:                   Instantaneous       Averaged
       Kinetic energy    (eV) =       0.407430          0.408034
       Potential energy  (eV) =    -413.049642       -412.256008
       Total energy      (eV) =    -412.642212       -411.847974
       Temperature       (K)  =      50.031940         50.106197
       Pressure         (GPa) =      64.817030         66.191612
  ** Time :            4.88500 ps :
     Properties:                   Instantaneous       Averaged
       Kinetic energy    (eV) =       0.408069          0.408034
       Potential energy  (eV) =    -413.119594       -412.256892
       Total energy      (eV) =    -412.711526       -411.848858
       Temperature       (K)  =      50.110462         50.106201
       Pressure         (GPa) =      65.667811         66.191076
  ** Time :            4.89000 ps :
     Properties:                   Instantaneous       Averaged
       Kinetic energy    (eV) =       0.406445          0.408033
       Potential energy  (eV) =    -413.104694       -412.257759
       Total energy      (eV) =    -412.698249       -411.849726
       Temperature       (K)  =      49.911005         50.106002
       Pressure         (GPa) =      67.016153         66.191920
  ** Time :            4.89500 ps :
     Properties:                   Instantaneous       Averaged
       Kinetic energy    (eV) =       0.407625          0.408032
       Potential energy  (eV) =    -413.107107       -412.258626
       Total energy      (eV) =    -412.699482       -411.850594
       Temperature       (K)  =      50.055922         50.105950
       Pressure         (GPa) =      66.162359         66.191889
  ** Time :            4.90000 ps :
     Properties:                   Instantaneous       Averaged
       Kinetic energy    (eV) =       0.407157          0.408031
       Potential energy  (eV) =    -413.122464       -412.259508
       Total energy      (eV) =    -412.715307       -411.851476
       Temperature       (K)  =      49.998481         50.105841
       Pressure         (GPa) =      65.489240         66.191172
  ** Time :            4.90500 ps :
     Properties:                   Instantaneous       Averaged
       Kinetic energy    (eV) =       0.406203          0.408029
       Potential energy  (eV) =    -413.072793       -412.260337
       Total energy      (eV) =    -412.666589       -411.852307
       Temperature       (K)  =      49.881365         50.105612
       Pressure         (GPa) =      64.952164         66.189909
  ** Time :            4.91000 ps :
     Properties:                   Instantaneous       Averaged
       Kinetic energy    (eV) =       0.408203          0.408030
       Potential energy  (eV) =    -413.066811       -412.261158
       Total energy      (eV) =    -412.658608       -411.853128
       Temperature       (K)  =      50.126967         50.105634
       Pressure         (GPa) =      66.675433         66.190404
  ** Time :            4.91500 ps :
     Properties:                   Instantaneous       Averaged
       Kinetic energy    (eV) =       0.405849          0.408027
       Potential energy  (eV) =    -413.014751       -412.261925
       Total energy      (eV) =    -412.608902       -411.853897
       Temperature       (K)  =      49.837895         50.105361
       Pressure         (GPa) =      65.112410         66.189307
  ** Time :            4.92000 ps :
     Properties:                   Instantaneous       Averaged
       Kinetic energy    (eV) =       0.408861          0.408028
       Potential energy  (eV) =    -413.038167       -412.262714
       Total energy      (eV) =    -412.629306       -411.854685
       Temperature       (K)  =      50.207751         50.105465
       Pressure         (GPa) =      63.953003         66.187034
  ** Time :            4.92500 ps :
     Properties:                   Instantaneous       Averaged
       Kinetic energy    (eV) =       0.405996          0.408026
       Potential energy  (eV) =    -413.130081       -412.263594
       Total energy      (eV) =    -412.724086       -411.855568
       Temperature       (K)  =      49.855871         50.105212
       Pressure         (GPa) =      66.598178         66.187452
  ** Time :            4.93000 ps :
     Properties:                   Instantaneous       Averaged
       Kinetic energy    (eV) =       0.407437          0.408026
       Potential energy  (eV) =    -413.018381       -412.264360
       Total energy      (eV) =    -412.610944       -411.856334
       Temperature       (K)  =      50.032818         50.105139
       Pressure         (GPa) =      65.290641         66.186542
  ** Time :            4.93500 ps :
     Properties:                   Instantaneous       Averaged
       Kinetic energy    (eV) =       0.406956          0.408025
       Potential energy  (eV) =    -413.172922       -412.265280
       Total energy      (eV) =    -412.765966       -411.857256
       Temperature       (K)  =      49.973835         50.105006
       Pressure         (GPa) =      65.505176         66.185852
  ** Time :            4.94000 ps :
     Properties:                   Instantaneous       Averaged
       Kinetic energy    (eV) =       0.406077          0.408023
       Potential energy  (eV) =    -413.103385       -412.266128
       Total energy      (eV) =    -412.697308       -411.858106
       Temperature       (K)  =      49.865858         50.104763
       Pressure         (GPa) =      64.575937         66.184223
  ** Time :            4.94500 ps :
     Properties:                   Instantaneous       Averaged
       Kinetic energy    (eV) =       0.406877          0.408021
       Potential energy  (eV) =    -413.098663       -412.266970
       Total energy      (eV) =    -412.691786       -411.858949
       Temperature       (K)  =      49.964053         50.104621
       Pressure         (GPa) =      65.068077         66.183094
  ** Time :            4.95000 ps :
     Properties:                   Instantaneous       Averaged
       Kinetic energy    (eV) =       0.407378          0.408021
       Potential energy  (eV) =    -413.095271       -412.267807
       Total energy      (eV) =    -412.687893       -411.859786
       Temperature       (K)  =      50.025585         50.104541
       Pressure         (GPa) =      66.124898         66.183035
  ** Time :            4.95500 ps :
     Properties:                   Instantaneous       Averaged
       Kinetic energy    (eV) =       0.407463          0.408020
       Potential energy  (eV) =    -413.114317       -412.268661
       Total energy      (eV) =    -412.706855       -411.860641
       Temperature       (K)  =      50.036017         50.104472
       Pressure         (GPa) =      64.915007         66.181756
  ** Time :            4.96000 ps :
     Properties:                   Instantaneous       Averaged
       Kinetic energy    (eV) =       0.407051          0.408019
       Potential energy  (eV) =    -413.134383       -412.269534
       Total energy      (eV) =    -412.727333       -411.861515
       Temperature       (K)  =      49.985412         50.104352
       Pressure         (GPa) =      66.207404         66.181782
  ** Time :            4.96500 ps :
     Properties:                   Instantaneous       Averaged
       Kinetic energy    (eV) =       0.406773          0.408018
       Potential energy  (eV) =    -413.113468       -412.270384
       Total energy      (eV) =    -412.706694       -411.862366
       Temperature       (K)  =      49.951377         50.104198
       Pressure         (GPa) =      66.708295         66.182312
  ** Time :            4.97000 ps :
     Properties:                   Instantaneous       Averaged
       Kinetic energy    (eV) =       0.407646          0.408018
       Potential energy  (eV) =    -413.103674       -412.271222
       Total energy      (eV) =    -412.696028       -411.863204
       Temperature       (K)  =      50.058573         50.104152
       Pressure         (GPa) =      67.303361         66.183440
  ** Time :            4.97500 ps :
     Properties:                   Instantaneous       Averaged
       Kinetic energy    (eV) =       0.406859          0.408016
       Potential energy  (eV) =    -413.142266       -412.272097
       Total energy      (eV) =    -412.735407       -411.864081
       Temperature       (K)  =      49.961850         50.104009
       Pressure         (GPa) =      67.219445         66.184481
  ** Time :            4.98000 ps :
     Properties:                   Instantaneous       Averaged
       Kinetic energy    (eV) =       0.406817          0.408015
       Potential energy  (eV) =    -413.117181       -412.272946
       Total energy      (eV) =    -412.710364       -411.864931
       Temperature       (K)  =      49.956684         50.103861
       Pressure         (GPa) =      65.802946         66.184098
  ** Time :            4.98500 ps :
     Properties:                   Instantaneous       Averaged
       Kinetic energy    (eV) =       0.406478          0.408014
       Potential energy  (eV) =    -413.063925       -412.273739
       Total energy      (eV) =    -412.657447       -411.865726
       Temperature       (K)  =      49.915082         50.103672
       Pressure         (GPa) =      67.367338         66.185284
  ** Time :            4.99000 ps :
     Properties:                   Instantaneous       Averaged
       Kinetic energy    (eV) =       0.408558          0.408014
       Potential energy  (eV) =    -413.070264       -412.274537
       Total energy      (eV) =    -412.661706       -411.866523
       Temperature       (K)  =      50.170513         50.103739
       Pressure         (GPa) =      66.024065         66.185123
  ** Time :            4.99500 ps :
     Properties:                   Instantaneous       Averaged
       Kinetic energy    (eV) =       0.406888          0.408013
       Potential energy  (eV) =    -413.153990       -412.275418
       Total energy      (eV) =    -412.747102       -411.867405
       Temperature       (K)  =      49.965405         50.103600
       Pressure         (GPa) =      63.967847         66.182903
  ** Time :            5.00000 ps :
     Properties:                   Instantaneous       Averaged
       Kinetic energy    (eV) =       0.406258          0.408011
       Potential energy  (eV) =    -413.035226       -412.276177
       Total energy      (eV) =    -412.628968       -411.868166
       Temperature       (K)  =      49.888023         50.103385
       Pressure         (GPa) =      64.900419         66.181621

  Peak dynamic memory used =       1.98 MB 


  Timing analysis for GULP :

--------------------------------------------------------------------------------
  Task / Subroutine                                          Time (Seconds)
--------------------------------------------------------------------------------
  Calculation of Brenner energy and derivatives                 208.8835
  Calculation of matrix inversion                                 0.1084
  Molecular dynamics - update of geometry                         0.6763
  Molecular dynamics - predictor                                  0.0664
  Molecular dynamics - corrector                                  0.6520
  Molecular dynamics - velocity correction                        0.4009
--------------------------------------------------------------------------------
  Total CPU time                                                211.6426
--------------------------------------------------------------------------------


  CIF file written as dm.cif


  Job Finished at 16:19.59 12th August     2020                               

