********************************************************************************
*                       GENERAL UTILITY LATTICE PROGRAM                        *
*                                 Julian Gale                                  *
*                       Curtin Institute for Computation                       *
*                    School of Molecular and Life Sciences                     *
*                    Curtin University, Western Australia                      *
********************************************************************************
* Version = 5.2.0 * Last modified =  17th December 2019                        *
********************************************************************************
*  optimise     - perform optimisation run                                     *
*  conv         - constant volume calculation                                  *
*  isotropic    - only isotropic cell expansion to be allowed                  *
*  lbfgs        - use limited memory BFGS update                               *
********************************************************************************
* ASE calculation                                                              *
********************************************************************************


  Job Started  at 14:09.57 31st July       2020                               

  Number of CPUs =     1


  Total number of configurations input =      1

********************************************************************************
*  Input for Configuration =   1                                               *
********************************************************************************

  Formula = C64                                                         

  Number of irreducible atoms/shells =      64


  Total number atoms/shells =      64

  Dimensionality = 3               :  Bulk   



  Cartesian lattice vectors (Angstroms) :

        7.498886    0.000000    0.000000
        0.000000    7.498886    0.000000
        0.000000    0.000000    7.498886

  Cell parameters (Angstroms/Degrees):

  a =       7.4989    alpha =  90.0000
  b =       7.4989    beta  =  90.0000
  c =       7.4989    gamma =  90.0000

  Initial cell volume =         421.687040 Angs**3

  Temperature of configuration =   0.00     K 

  Pressure of configuration =         0.000 GPa 

  Fractional coordinates of asymmetric unit :

--------------------------------------------------------------------------------
   No.  Atomic       x           y          z         Charge      Occupancy
        Label      (Frac)      (Frac)     (Frac)        (e)         (Frac)  
--------------------------------------------------------------------------------
      1 C     c    0.035780    0.526170    0.339890     0.00000    1.000000    
      2 C     c    0.229590 *  0.062470 *  0.070680 *   0.00000    1.000000    
      3 C     c    0.086740 *  0.372580 *  0.241540 *   0.00000    1.000000    
      4 C     c    0.849890 *  0.908360 *  0.422460 *   0.00000    1.000000    
      5 C     c    0.441280 *  0.873720 *  0.947590 *   0.00000    1.000000    
      6 C     c    0.787440 *  0.429530 *  0.218620 *   0.00000    1.000000    
      7 C     c    0.901960 *  0.595110 *  0.684440 *   0.00000    1.000000    
      8 C     c    0.792250 *  0.510990 *  0.553950 *   0.00000    1.000000    
      9 C     c    0.109330 *  0.341370 *  0.597450 *   0.00000    1.000000    
     10 C     c    0.368560 *  0.720100 *  0.087270 *   0.00000    1.000000    
     11 C     c    0.859240 *  0.209770 *  0.708270 *   0.00000    1.000000    
     12 C     c    0.544100 *  0.861310 *  0.508880 *   0.00000    1.000000    
     13 C     c    0.399810 *  0.199970 *  0.585870 *   0.00000    1.000000    
     14 C     c    0.169580 *  0.946440 *  0.765170 *   0.00000    1.000000    
     15 C     c    0.498500 *  0.562480 *  0.365890 *   0.00000    1.000000    
     16 C     c    0.950810 *  0.898420 *  0.079280 *   0.00000    1.000000    
     17 C     c    0.116990 *  0.779030 *  0.831300 *   0.00000    1.000000    
     18 C     c    0.273570 *  0.686230 *  0.563680 *   0.00000    1.000000    
     19 C     c    0.707320 *  0.344640 *  0.642410 *   0.00000    1.000000    
     20 C     c    0.019610 *  0.197340 *  0.239350 *   0.00000    1.000000    
     21 C     c    0.914960 *  0.113770 *  0.392490 *   0.00000    1.000000    
     22 C     c    0.837630 *  0.564860 *  0.366020 *   0.00000    1.000000    
     23 C     c    0.432980 *  0.789650 *  0.634100 *   0.00000    1.000000    
     24 C     c    0.769260 *  0.240060 *  0.292990 *   0.00000    1.000000    
     25 C     c    0.643930 *  0.119910 *  0.979490 *   0.00000    1.000000    
     26 C     c    0.485730 *  0.554490 *  0.047940 *   0.00000    1.000000    
     27 C     c    0.577200 *  0.241410 *  0.526410 *   0.00000    1.000000    
     28 C     c    0.601420 *  0.945080 *  0.073870 *   0.00000    1.000000    
     29 C     c    0.456300 *  0.873520 *  0.209870 *   0.00000    1.000000    
     30 C     c    0.305050 *  0.022220 *  0.885080 *   0.00000    1.000000    
     31 C     c    0.783880 *  0.070020 *  0.850190 *   0.00000    1.000000    
     32 C     c    0.845150 *  0.726130 *  0.803670 *   0.00000    1.000000    
     33 C     c    0.277250 *  0.359650 *  0.526010 *   0.00000    1.000000    
     34 C     c    0.192240 *  0.651360 *  0.147020 *   0.00000    1.000000    
     35 C     c    0.059800 *  0.466190 *  0.745160 *   0.00000    1.000000    
     36 C     c    0.299400 *  0.059080 *  0.468830 *   0.00000    1.000000    
     37 C     c    0.158120 *  0.690640 *  0.365300 *   0.00000    1.000000    
     38 C     c    0.510810 *  0.270950 *  0.909310 *   0.00000    1.000000    
     39 C     c    0.030260 *  0.084690 *  0.074760 *   0.00000    1.000000    
     40 C     c    0.731350 *  0.898160 *  0.760240 *   0.00000    1.000000    
     41 C     c    0.354530 *  0.518850 *  0.467700 *   0.00000    1.000000    
     42 C     c    0.050530 *  0.856680 *  0.457030 *   0.00000    1.000000    
     43 C     c    0.032710 *  0.391020 *  0.935900 *   0.00000    1.000000    
     44 C     c    0.198350 *  0.432400 *  0.080030 *   0.00000    1.000000    
     45 C     c    0.156630 *  0.641120 *  0.718440 *   0.00000    1.000000    
     46 C     c    0.878180 *  0.482020 *  0.050850 *   0.00000    1.000000    
     47 C     c    0.770670 *  0.816050 *  0.111880 *   0.00000    1.000000    
     48 C     c    0.956570 *  0.195360 *  0.913820 *   0.00000    1.000000    
     49 C     c    0.760580 *  0.757830 *  0.309070 *   0.00000    1.000000    
     50 C     c    0.784460 *  0.652370 *  0.979350 *   0.00000    1.000000    
     51 C     c    0.134860 *  0.001610 *  0.567360 *   0.00000    1.000000    
     52 C     c    0.449340 *  0.221950 *  0.230520 *   0.00000    1.000000    
     53 C     c    0.398790 *  0.353120 *  0.068820 *   0.00000    1.000000    
     54 C     c    0.340680 *  0.047910 *  0.256940 *   0.00000    1.000000    
     55 C     c    0.598360 *  0.221420 *  0.346800 *   0.00000    1.000000    
     56 C     c    0.391290 *  0.170980 *  0.786620 *   0.00000    1.000000    
     57 C     c    0.608190 *  0.415170 *  0.804460 *   0.00000    1.000000    
     58 C     c    0.706980 *  0.925380 *  0.564050 *   0.00000    1.000000    
     59 C     c    0.070550 *  0.762920 *  0.012520 *   0.00000    1.000000    
     60 C     c    0.578950 *  0.471410 *  0.218930 *   0.00000    1.000000    
     61 C     c    0.558470 *  0.760510 *  0.348430 *   0.00000    1.000000    
     62 C     c    0.998680 *  0.176400 *  0.572620 *   0.00000    1.000000    
     63 C     c    0.602800 *  0.596610 *  0.896230 *   0.00000    1.000000    
     64 C     c    0.545760 *  0.785700 *  0.804830 *   0.00000    1.000000    
--------------------------------------------------------------------------------


  Constraints : 

--------------------------------------------------------------------------------
  Constraint no.      Unconstrained     Constrained    Coefficient    Offset
                         Variable         Variable
--------------------------------------------------------------------------------
           1              Strain 1        Strain 2       1.00000      0.0000
           2              Strain 1        Strain 3       1.00000      0.0000
--------------------------------------------------------------------------------


********************************************************************************
*  General input information                                                   *
********************************************************************************

  Species output for all configurations : 

--------------------------------------------------------------------------------
  Species    Type    Atomic    Atomic    Charge       Radii (Angs)     Library
                     Number     Mass       (e)     Cova   Ionic  VDW   Symbol
--------------------------------------------------------------------------------
    C        Core        6      12.01   0.000000   0.770  0.000  1.530          
--------------------------------------------------------------------------------


  Lattice summation method               =    Ewald          (3-D)
                                         =    Parry          (2-D)
                                         =    Saunders et al (1-D)
  Accuracy factor for lattice sums       =   12.000


  Analytic derivatives to be used

  Time limit = Infinity

  Maximum range for interatomic potentials =    100000.000000 Angstroms

  Brenner et al 2002 potential to be used with explicit splines for P


********************************************************************************
*  Output for configuration   1                                                *
********************************************************************************


  Components of energy : 

--------------------------------------------------------------------------------
  Interatomic potentials     =           0.00000000 eV    
  Brenner potentials         =        -421.76899936 eV    
  Monopole - monopole (real) =           0.00000000 eV    
  Monopole - monopole (recip)=           0.00000000 eV    
  Monopole - monopole (total)=           0.00000000 eV    
--------------------------------------------------------------------------------
  Total lattice energy       =        -421.76899936 eV    
--------------------------------------------------------------------------------
  Total lattice energy       =          -40694.2611 kJ/(mole unit cells)
--------------------------------------------------------------------------------


  Number of variables =      189

  Maximum number of calculations  =          2000
  Maximum Hessian update interval =            10
  Maximum step size               =   1.000000000
  Maximum parameter tolerance     =   0.000010000
  Maximum function  tolerance     =   0.000010000
  Maximum gradient  tolerance     =   0.001000000
  Maximum gradient  component     =   0.010000000

  Maximum LM gradient tolerance   =   0.900000000
  Symmetry not applied to optimisation

  Limited Memory BFGS to be used of order   10

  BFGS hessian update to be used

  Lower half triangular hessian to be used

  Start of bulk optimisation :

  Cycle:      0 Energy:      -421.768999  Gnorm:      0.573883  CPU:    0.041
  Cycle:      1 Energy:      -421.876185  Gnorm:      0.510025  CPU:    0.087
  Cycle:      2 Energy:      -422.528002  Gnorm:      0.239900  CPU:    0.094
  Cycle:      3 Energy:      -422.689010  Gnorm:      0.168900  CPU:    0.112
  Cycle:      4 Energy:      -422.814692  Gnorm:      0.192703  CPU:    0.127
  Cycle:      5 Energy:      -422.872605  Gnorm:      0.194610  CPU:    0.134
  Cycle:      6 Energy:      -422.920791  Gnorm:      0.097587  CPU:    0.159
  Cycle:      7 Energy:      -422.957076  Gnorm:      0.071107  CPU:    0.195
  Cycle:      8 Energy:      -422.984717  Gnorm:      0.074092  CPU:    0.223
  Cycle:      9 Energy:      -423.013421  Gnorm:      0.125651  CPU:    0.242
  Cycle:     10 Energy:      -423.040556  Gnorm:      0.056993  CPU:    0.257
  Cycle:     11 Energy:      -423.052207  Gnorm:      0.048279  CPU:    0.276
  Cycle:     12 Energy:      -423.073740  Gnorm:      0.048284  CPU:    0.283
  Cycle:     13 Energy:      -423.090360  Gnorm:      0.058805  CPU:    0.301
  Cycle:     14 Energy:      -423.103116  Gnorm:      0.042775  CPU:    0.317
  Cycle:     15 Energy:      -423.111198  Gnorm:      0.031391  CPU:    0.324
  Cycle:     16 Energy:      -423.118801  Gnorm:      0.054394  CPU:    0.341
  Cycle:     17 Energy:      -423.124447  Gnorm:      0.034950  CPU:    0.357
  Cycle:     18 Energy:      -423.128649  Gnorm:      0.029411  CPU:    0.364
  Cycle:     19 Energy:      -423.133856  Gnorm:      0.020977  CPU:    0.390
  Cycle:     20 Energy:      -423.135364  Gnorm:      0.030309  CPU:    0.415
  Cycle:     21 Energy:      -423.137247  Gnorm:      0.019160  CPU:    0.421
  Cycle:     22 Energy:      -423.138891  Gnorm:      0.015587  CPU:    0.447
  Cycle:     23 Energy:      -423.139636  Gnorm:      0.017640  CPU:    0.456
  Cycle:     24 Energy:      -423.140611  Gnorm:      0.012518  CPU:    0.462
  Cycle:     25 Energy:      -423.141555  Gnorm:      0.012487  CPU:    0.487
  Cycle:     26 Energy:      -423.142103  Gnorm:      0.017470  CPU:    0.496
  Cycle:     27 Energy:      -423.142656  Gnorm:      0.009904  CPU:    0.502
  Cycle:     28 Energy:      -423.143294  Gnorm:      0.009807  CPU:    0.528
  Cycle:     29 Energy:      -423.143785  Gnorm:      0.010916  CPU:    0.537
  Cycle:     30 Energy:      -423.145025  Gnorm:      0.017466  CPU:    0.546
  Cycle:     31 Energy:      -423.145553  Gnorm:      0.028638  CPU:    0.569
  Cycle:     32 Energy:      -423.146707  Gnorm:      0.009929  CPU:    0.577
  Cycle:     33 Energy:      -423.147203  Gnorm:      0.009721  CPU:    0.590
  Cycle:     34 Energy:      -423.147919  Gnorm:      0.011505  CPU:    0.611
  Cycle:     35 Energy:      -423.149355  Gnorm:      0.012973  CPU:    0.618
  Cycle:     36 Energy:      -423.149947  Gnorm:      0.022053  CPU:    0.646
  Cycle:     37 Energy:      -423.151235  Gnorm:      0.012229  CPU:    0.669
  Cycle:     38 Energy:      -423.152104  Gnorm:      0.010295  CPU:    0.683
  Cycle:     39 Energy:      -423.153149  Gnorm:      0.012170  CPU:    0.690
  Cycle:     40 Energy:      -423.153829  Gnorm:      0.021007  CPU:    0.712
  Cycle:     41 Energy:      -423.154544  Gnorm:      0.010244  CPU:    0.723
  Cycle:     42 Energy:      -423.155096  Gnorm:      0.009503  CPU:    0.730
  Cycle:     43 Energy:      -423.155588  Gnorm:      0.010177  CPU:    0.753
  Cycle:     44 Energy:      -423.155752  Gnorm:      0.032386  CPU:    0.764
  Cycle:     45 Energy:      -423.156684  Gnorm:      0.008684  CPU:    0.771
  Cycle:     46 Energy:      -423.156902  Gnorm:      0.005846  CPU:    0.795
  Cycle:     47 Energy:      -423.157138  Gnorm:      0.007152  CPU:    0.805
  Cycle:     48 Energy:      -423.157417  Gnorm:      0.007669  CPU:    0.811
  Cycle:     49 Energy:      -423.157604  Gnorm:      0.010281  CPU:    0.842
  Cycle:     50 Energy:      -423.157804  Gnorm:      0.004718  CPU:    0.849
  Cycle:     51 Energy:      -423.157903  Gnorm:      0.004206  CPU:    0.869
  Cycle:     52 Energy:      -423.158023  Gnorm:      0.004866  CPU:    0.899
  Cycle:     53 Energy:      -423.158184  Gnorm:      0.005039  CPU:    0.909
  Cycle:     54 Energy:      -423.158243  Gnorm:      0.005547  CPU:    0.927
  Cycle:     55 Energy:      -423.158326  Gnorm:      0.002612  CPU:    0.946
  Cycle:     56 Energy:      -423.158367  Gnorm:      0.002467  CPU:    0.953
  Cycle:     57 Energy:      -423.158422  Gnorm:      0.003490  CPU:    0.977
  Cycle:     58 Energy:      -423.158462  Gnorm:      0.002817  CPU:    0.986
  Cycle:     59 Energy:      -423.158495  Gnorm:      0.002182  CPU:    0.992
  Cycle:     60 Energy:      -423.158553  Gnorm:      0.002230  CPU:    1.018
  Cycle:     61 Energy:      -423.158558  Gnorm:      0.006931  CPU:    1.027
  Cycle:     62 Energy:      -423.158611  Gnorm:      0.002701  CPU:    1.034
  Cycle:     63 Energy:      -423.158642  Gnorm:      0.001828  CPU:    1.059
  Cycle:     64 Energy:      -423.158674  Gnorm:      0.002246  CPU:    1.067
  Cycle:     65 Energy:      -423.158714  Gnorm:      0.002882  CPU:    1.078
  Cycle:     66 Energy:      -423.158766  Gnorm:      0.005887  CPU:    1.100
  Cycle:     67 Energy:      -423.158819  Gnorm:      0.002696  CPU:    1.108
  Cycle:     68 Energy:      -423.158843  Gnorm:      0.002648  CPU:    1.122
  Cycle:     69 Energy:      -423.158890  Gnorm:      0.003101  CPU:    1.141
  Cycle:     70 Energy:      -423.158924  Gnorm:      0.005443  CPU:    1.151
  Cycle:     71 Energy:      -423.158981  Gnorm:      0.003731  CPU:    1.177
  Cycle:     72 Energy:      -423.159059  Gnorm:      0.002705  CPU:    1.186
  Cycle:     73 Energy:      -423.159152  Gnorm:      0.003309  CPU:    1.192
  Cycle:     74 Energy:      -423.159272  Gnorm:      0.003965  CPU:    1.218
  Cycle:     75 Energy:      -423.159319  Gnorm:      0.006125  CPU:    1.230
  Cycle:     76 Energy:      -423.159425  Gnorm:      0.003740  CPU:    1.252
  Cycle:     77 Energy:      -423.159514  Gnorm:      0.003617  CPU:    1.263
  Cycle:     78 Energy:      -423.159574  Gnorm:      0.005086  CPU:    1.270
  Cycle:     79 Energy:      -423.159628  Gnorm:      0.003653  CPU:    1.294
  Cycle:     80 Energy:      -423.159693  Gnorm:      0.002879  CPU:    1.304
  Cycle:     81 Energy:      -423.159750  Gnorm:      0.003405  CPU:    1.311
  Cycle:     82 Energy:      -423.159818  Gnorm:      0.005291  CPU:    1.336
  Cycle:     83 Energy:      -423.159872  Gnorm:      0.003135  CPU:    1.345
  Cycle:     84 Energy:      -423.159899  Gnorm:      0.002312  CPU:    1.351
  Cycle:     85 Energy:      -423.159934  Gnorm:      0.001937  CPU:    1.377
  Cycle:     86 Energy:      -423.159969  Gnorm:      0.002219  CPU:    1.403
  Cycle:     87 Energy:      -423.159988  Gnorm:      0.003026  CPU:    1.412
  Cycle:     88 Energy:      -423.160011  Gnorm:      0.001761  CPU:    1.422
  Cycle:     89 Energy:      -423.160021  Gnorm:      0.001219  CPU:    1.445
  Cycle:     90 Energy:      -423.160036  Gnorm:      0.001298  CPU:    1.452
  Cycle:     91 Energy:      -423.160049  Gnorm:      0.003228  CPU:    1.466
  Cycle:     92 Energy:      -423.160062  Gnorm:      0.001245  CPU:    1.486
  Cycle:     93 Energy:      -423.160068  Gnorm:      0.001054  CPU:    1.493
  Cycle:     94 Energy:      -423.160075  Gnorm:      0.001185  CPU:    1.510
  Cycle:     95 Energy:      -423.160091  Gnorm:      0.001595  CPU:    1.527
  Cycle:     96 Energy:      -423.160093  Gnorm:      0.001050  CPU:    1.537
  Cycle:     97 Energy:      -423.160096  Gnorm:      0.000793  CPU:    1.562
  Cycle:     98 Energy:      -423.160102  Gnorm:      0.000955  CPU:    1.571
  Cycle:     99 Energy:      -423.160104  Gnorm:      0.000927  CPU:    1.595
  Cycle:    100 Energy:      -423.160109  Gnorm:      0.001263  CPU:    1.608
  Cycle:    101 Energy:      -423.160125  Gnorm:      0.002220  CPU:    1.615
  Cycle:    102 Energy:      -423.160126  Gnorm:      0.001189  CPU:    1.637
  Cycle:    103 Energy:      -423.160129  Gnorm:      0.000857  CPU:    1.648
  Cycle:    104 Energy:      -423.160136  Gnorm:      0.001010  CPU:    1.655
  Cycle:    105 Energy:      -423.160148  Gnorm:      0.002196  CPU:    1.679
  Cycle:    106 Energy:      -423.160155  Gnorm:      0.002752  CPU:    1.689
  Cycle:    107 Energy:      -423.160170  Gnorm:      0.000897  CPU:    1.696
  Cycle:    108 Energy:      -423.160176  Gnorm:      0.000839  CPU:    1.721
  Cycle:    109 Energy:      -423.160185  Gnorm:      0.001006  CPU:    1.730
  Cycle:    110 Energy:      -423.160203  Gnorm:      0.001991  CPU:    1.736
  Cycle:    111 Energy:      -423.160203  Gnorm:      0.001155  CPU:    1.762
  Cycle:    112 Energy:      -423.160204  Gnorm:      0.000700  CPU:    1.787
  Cycle:    113 Energy:      -423.160207  Gnorm:      0.000885  CPU:    1.798
  Cycle:    114 Energy:      -423.160209  Gnorm:      0.000898  CPU:    1.805
  Cycle:    115 Energy:      -423.160212  Gnorm:      0.000665  CPU:    1.828
  Cycle:    116 Energy:      -423.160217  Gnorm:      0.000543  CPU:    1.839
  Cycle:    117 Energy:      -423.160217  Gnorm:      0.000543  CPU:    2.298
  Cycle:    118 Energy:      -423.160217  Gnorm:      0.000543  CPU:    2.346
  Cycle:    119 Energy:      -423.160217  Gnorm:      0.000543  CPU:    2.724
  Cycle:    120 Energy:      -423.160217  Gnorm:      0.000543  CPU:    2.781
  Cycle:    121 Energy:      -423.160217  Gnorm:      0.000543  CPU:    3.331
  Cycle:    122 Energy:      -423.160217  Gnorm:      0.000543  CPU:    3.404
  Cycle:    123 Energy:      -423.160217  Gnorm:      0.000543  CPU:    3.454
  Cycle:    124 Energy:      -423.160217  Gnorm:      0.000535  CPU:    3.630
  Cycle:    125 Energy:      -423.160217  Gnorm:      0.000535  CPU:    4.160
  Cycle:    126 Energy:      -423.160217  Gnorm:      0.000535  CPU:    4.228
  Cycle:    127 Energy:      -423.160217  Gnorm:      0.000535  CPU:    4.275


  **** Too many failed attempts to optimise ****

  Final energy =    -423.16021713 eV
  Final Gnorm  =       0.00053539

  Components of energy : 

--------------------------------------------------------------------------------
  Interatomic potentials     =           0.00000000 eV    
  Brenner potentials         =        -423.16021713 eV    
  Monopole - monopole (real) =           0.00000000 eV    
  Monopole - monopole (recip)=           0.00000000 eV    
  Monopole - monopole (total)=           0.00000000 eV    
--------------------------------------------------------------------------------
  Total lattice energy       =        -423.16021713 eV    
--------------------------------------------------------------------------------
  Total lattice energy       =          -40828.4924 kJ/(mole unit cells)
--------------------------------------------------------------------------------

  Final fractional coordinates of atoms :

--------------------------------------------------------------------------------
   No.  Atomic        x           y          z          Radius
        Label       (Frac)      (Frac)     (Frac)       (Angs) 
--------------------------------------------------------------------------------
     1  C     c     0.035780    0.526170    0.339890    0.000000
     2  C     c     0.239512    0.060544    0.072346    0.000000
     3  C     c     0.089391    0.374439    0.242572    0.000000
     4  C     c     0.858416    0.909364    0.415319    0.000000
     5  C     c     0.445463    0.864545    0.949641    0.000000
     6  C     c     0.784632    0.426758    0.212546    0.000000
     7  C     c     0.905102    0.586695    0.682219    0.000000
     8  C     c     0.793140    0.502231    0.552149    0.000000
     9  C     c     0.113246    0.329730    0.605372    0.000000
    10  C     c     0.369445    0.711786    0.088589    0.000000
    11  C     c     0.866653    0.207613    0.711559    0.000000
    12  C     c     0.546791    0.858332    0.511930    0.000000
    13  C     c     0.403210    0.189746    0.588999    0.000000
    14  C     c     0.171675    0.932884    0.771116    0.000000
    15  C     c     0.502601    0.559755    0.366754    0.000000
    16  C     c     0.957071    0.898004    0.083595    0.000000
    17  C     c     0.121283    0.766976    0.840017    0.000000
    18  C     c     0.280339    0.670607    0.570765    0.000000
    19  C     c     0.714986    0.332876    0.641750    0.000000
    20  C     c     0.029200    0.197805    0.239767    0.000000
    21  C     c     0.913437    0.116843    0.388944    0.000000
    22  C     c     0.834725    0.563033    0.362960    0.000000
    23  C     c     0.438217    0.780352    0.639506    0.000000
    24  C     c     0.772985    0.239689    0.283587    0.000000
    25  C     c     0.647382    0.114306    0.982949    0.000000
    26  C     c     0.482779    0.548899    0.046711    0.000000
    27  C     c     0.583621    0.229339    0.524454    0.000000
    28  C     c     0.606047    0.939270    0.077341    0.000000
    29  C     c     0.457365    0.864030    0.213935    0.000000
    30  C     c     0.313694    0.009216    0.887499    0.000000
    31  C     c     0.791173    0.063870    0.850669    0.000000
    32  C     c     0.848608    0.721501    0.798516    0.000000
    33  C     c     0.288931    0.348759    0.540213    0.000000
    34  C     c     0.188653    0.644007    0.156334    0.000000
    35  C     c     0.057001    0.458460    0.747550    0.000000
    36  C     c     0.305649    0.045554    0.475846    0.000000
    37  C     c     0.160520    0.688728    0.378226    0.000000
    38  C     c     0.517923    0.261382    0.912846    0.000000
    39  C     c     0.038653    0.084051    0.073930    0.000000
    40  C     c     0.741506    0.892231    0.759376    0.000000
    41  C     c     0.365036    0.507168    0.479329    0.000000
    42  C     c     0.049482    0.847728    0.461702    0.000000
    43  C     c     0.030538    0.388506    0.937880    0.000000
    44  C     c     0.200499    0.431069    0.076406    0.000000
    45  C     c     0.163756    0.628959    0.728384    0.000000
    46  C     c     0.877947    0.485219    0.044973    0.000000
    47  C     c     0.773263    0.814012    0.111092    0.000000
    48  C     c     0.966936    0.189579    0.915418    0.000000
    49  C     c     0.762377    0.754704    0.307569    0.000000
    50  C     c     0.787844    0.651725    0.978661    0.000000
    51  C     c     0.136647    0.990120    0.577521    0.000000
    52  C     c     0.445218    0.212603    0.229924    0.000000
    53  C     c     0.399901    0.342091    0.069219    0.000000
    54  C     c     0.340258    0.031395    0.262603    0.000000
    55  C     c     0.598679    0.216374    0.341640    0.000000
    56  C     c     0.400828    0.156459    0.788562    0.000000
    57  C     c     0.615571    0.404773    0.806500    0.000000
    58  C     c     0.714581    0.921201    0.564096    0.000000
    59  C     c     0.077720    0.761067    0.023983    0.000000
    60  C     c     0.579260    0.473428    0.214257    0.000000
    61  C     c     0.558255    0.757287    0.349194    0.000000
    62  C     c     0.005604    0.158030    0.569897    0.000000
    63  C     c     0.605269    0.589676    0.891292    0.000000
    64  C     c     0.552224    0.774434    0.806203    0.000000
--------------------------------------------------------------------------------

  Final internal derivatives :

--------------------------------------------------------------------------------
   No.  Atomic          a             b             c           Radius
        Label          (eV)          (eV)          (eV)        (eV/Angs)
--------------------------------------------------------------------------------
      1 C     c       0.000000      0.000000      0.000000      0.000000
      2 C     c      -0.003664      0.007287      0.002447      0.000000
      3 C     c       0.008481     -0.005363     -0.004733      0.000000
      4 C     c      -0.001351     -0.005092      0.002157      0.000000
      5 C     c      -0.009416     -0.001159     -0.006621      0.000000
      6 C     c       0.003456     -0.000680     -0.008266      0.000000
      7 C     c      -0.019599     -0.000623     -0.001025      0.000000
      8 C     c       0.001498      0.009091      0.003838      0.000000
      9 C     c      -0.007951     -0.000629     -0.008915      0.000000
     10 C     c       0.002068      0.004479     -0.002268      0.000000
     11 C     c      -0.001743      0.000703      0.010804      0.000000
     12 C     c       0.002713      0.000358      0.004291      0.000000
     13 C     c       0.003473     -0.001599      0.006047      0.000000
     14 C     c       0.000969      0.002478     -0.005258      0.000000
     15 C     c      -0.016677     -0.000025     -0.012723      0.000000
     16 C     c      -0.008775     -0.003198      0.006930      0.000000
     17 C     c      -0.001249      0.003442     -0.001097      0.000000
     18 C     c       0.000762     -0.000482      0.006904      0.000000
     19 C     c       0.006878     -0.001224     -0.003154      0.000000
     20 C     c      -0.012386     -0.006228      0.002236      0.000000
     21 C     c       0.004265     -0.006038     -0.005220      0.000000
     22 C     c      -0.002300     -0.001375     -0.004653      0.000000
     23 C     c       0.006601     -0.004930      0.004066      0.000000
     24 C     c       0.024283      0.004108      0.000750      0.000000
     25 C     c      -0.008970      0.002524      0.007307      0.000000
     26 C     c       0.001763     -0.003867      0.003640      0.000000
     27 C     c       0.005052     -0.000668     -0.000813      0.000000
     28 C     c      -0.002990     -0.001059     -0.004376      0.000000
     29 C     c       0.007734      0.011113      0.011486      0.000000
     30 C     c       0.000895     -0.001671     -0.000722      0.000000
     31 C     c      -0.007715     -0.013369      0.003515      0.000000
     32 C     c       0.009980     -0.000050      0.011268      0.000000
     33 C     c      -0.008450     -0.006215     -0.010286      0.000000
     34 C     c       0.001071     -0.032187     -0.013431      0.000000
     35 C     c       0.004443     -0.004659     -0.001587      0.000000
     36 C     c      -0.003371     -0.003915     -0.005273      0.000000
     37 C     c      -0.007372     -0.004782      0.018535      0.000000
     38 C     c      -0.003284      0.003609      0.006681      0.000000
     39 C     c      -0.011053     -0.014051     -0.004345      0.000000
     40 C     c      -0.001045     -0.008905      0.004528      0.000000
     41 C     c      -0.005466     -0.000732      0.000688      0.000000
     42 C     c       0.001712      0.003415      0.000925      0.000000
     43 C     c      -0.005192      0.003010     -0.002166      0.000000
     44 C     c       0.005178      0.034082      0.002809      0.000000
     45 C     c       0.026922      0.006871      0.003911      0.000000
     46 C     c      -0.001081     -0.003806     -0.008986      0.000000
     47 C     c      -0.001961     -0.009314     -0.003328      0.000000
     48 C     c       0.000980     -0.001894      0.005790      0.000000
     49 C     c      -0.004147      0.000132     -0.002276      0.000000
     50 C     c      -0.002231     -0.008390     -0.002238      0.000000
     51 C     c      -0.000304      0.001880     -0.000992      0.000000
     52 C     c      -0.005655     -0.004636     -0.000200      0.000000
     53 C     c      -0.003689      0.001152      0.005946      0.000000
     54 C     c      -0.009363     -0.006723     -0.000586      0.000000
     55 C     c      -0.009958     -0.003473      0.002411      0.000000
     56 C     c       0.000121      0.002556      0.008128      0.000000
     57 C     c       0.006647     -0.007578     -0.001456      0.000000
     58 C     c       0.000206      0.010981      0.005399      0.000000
     59 C     c       0.001380      0.011338      0.002030      0.000000
     60 C     c       0.004881     -0.004558     -0.001838      0.000000
     61 C     c      -0.001078      0.005386     -0.001945      0.000000
     62 C     c      -0.006250      0.001508      0.004673      0.000000
     63 C     c       0.001223     -0.012879      0.004400      0.000000
     64 C     c      -0.004702      0.003359      0.011481      0.000000
--------------------------------------------------------------------------------
  Maximum abs         0.026922      0.034082      0.018535      0.000000
--------------------------------------------------------------------------------


  Time to end of optimisation =       4.7277 seconds


  Peak dynamic memory used =       2.01 MB 


  Timing analysis for GULP :

--------------------------------------------------------------------------------
  Task / Subroutine                                          Time (Seconds)
--------------------------------------------------------------------------------
  Calculation of Brenner energy and derivatives                   4.6565
--------------------------------------------------------------------------------
  Total CPU time                                                  4.7277
--------------------------------------------------------------------------------


  CIF file written as opti_0.9775.cif


  Job Finished at 14:10.02 31st July       2020                               

