********************************************************************************
*                       GENERAL UTILITY LATTICE PROGRAM                        *
*                                 Julian Gale                                  *
*                       Curtin Institute for Computation                       *
*                    School of Molecular and Life Sciences                     *
*                    Curtin University, Western Australia                      *
********************************************************************************
* Version = 5.2.0 * Last modified =  17th December 2019                        *
********************************************************************************
*  optimise     - perform optimisation run                                     *
*  conv         - constant volume calculation                                  *
*  isotropic    - only isotropic cell expansion to be allowed                  *
*  conjugate    - use conjugate gradients minimiser                            *
********************************************************************************
* ASE calculation                                                              *
********************************************************************************


  Job Started  at 16:48.26 11th August     2020                               

  Number of CPUs =     1


  Total number of configurations input =      1

********************************************************************************
*  Input for Configuration =   1                                               *
********************************************************************************

  Formula = C64                                                         

  Number of irreducible atoms/shells =      64


  Total number atoms/shells =      64

  Dimensionality = 3               :  Bulk   



  Cartesian lattice vectors (Angstroms) :

        7.634159    0.000000    0.000000
        0.000000    7.634159    0.000000
        0.000000    0.000000    7.634159

  Cell parameters (Angstroms/Degrees):

  a =       7.6342    alpha =  90.0000
  b =       7.6342    beta  =  90.0000
  c =       7.6342    gamma =  90.0000

  Initial cell volume =         444.921715 Angs**3

  Temperature of configuration =   0.00     K 

  Pressure of configuration =         0.000 GPa 

  Fractional coordinates of asymmetric unit :

--------------------------------------------------------------------------------
   No.  Atomic       x           y          z         Charge      Occupancy
        Label      (Frac)      (Frac)     (Frac)        (e)         (Frac)  
--------------------------------------------------------------------------------
      1 C     c    0.025100    0.587150    0.365320     0.00000    1.000000    
      2 C     c    0.261960 *  0.102350 *  0.107880 *   0.00000    1.000000    
      3 C     c    0.100080 *  0.438460 *  0.267700 *   0.00000    1.000000    
      4 C     c    0.878960 *  0.966820 *  0.452800 *   0.00000    1.000000    
      5 C     c    0.476970 *  0.917400 *  0.988740 *   0.00000    1.000000    
      6 C     c    0.786990 *  0.447150 *  0.220140 *   0.00000    1.000000    
      7 C     c    0.923040 *  0.637520 *  0.717050 *   0.00000    1.000000    
      8 C     c    0.810170 *  0.554560 *  0.590260 *   0.00000    1.000000    
      9 C     c    0.131790 *  0.380040 *  0.638710 *   0.00000    1.000000    
     10 C     c    0.404270 *  0.764550 *  0.117610 *   0.00000    1.000000    
     11 C     c    0.889700 *  0.256980 *  0.746610 *   0.00000    1.000000    
     12 C     c    0.569910 *  0.900620 *  0.557400 *   0.00000    1.000000    
     13 C     c    0.425650 *  0.240870 *  0.632440 *   0.00000    1.000000    
     14 C     c    0.200020 *  0.983730 *  0.798590 *   0.00000    1.000000    
     15 C     c    0.523060 *  0.608540 *  0.406760 *   0.00000    1.000000    
     16 C     c    0.987720 *  0.938200 *  0.121300 *   0.00000    1.000000    
     17 C     c    0.134680 *  0.821550 *  0.858210 *   0.00000    1.000000    
     18 C     c    0.347750 *  0.690110 *  0.662490 *   0.00000    1.000000    
     19 C     c    0.738190 *  0.384180 *  0.683430 *   0.00000    1.000000    
     20 C     c    0.046450 *  0.258110 *  0.266300 *   0.00000    1.000000    
     21 C     c    0.936080 *  0.173340 *  0.419850 *   0.00000    1.000000    
     22 C     c    0.843300 *  0.615880 *  0.414970 *   0.00000    1.000000    
     23 C     c    0.478470 *  0.818970 *  0.689890 *   0.00000    1.000000    
     24 C     c    0.794120 *  0.296780 *  0.327440 *   0.00000    1.000000    
     25 C     c    0.669440 *  0.161030 *  0.017330 *   0.00000    1.000000    
     26 C     c    0.520340 *  0.604650 *  0.088340 *   0.00000    1.000000    
     27 C     c    0.606080 *  0.280540 *  0.571440 *   0.00000    1.000000    
     28 C     c    0.633890 *  0.989520 *  0.119020 *   0.00000    1.000000    
     29 C     c    0.479160 *  0.916090 *  0.251290 *   0.00000    1.000000    
     30 C     c    0.339390 *  0.056680 *  0.923070 *   0.00000    1.000000    
     31 C     c    0.810280 *  0.113020 *  0.884120 *   0.00000    1.000000    
     32 C     c    0.867950 *  0.767490 *  0.838090 *   0.00000    1.000000    
     33 C     c    0.307470 *  0.395320 *  0.575810 *   0.00000    1.000000    
     34 C     c    0.226620 *  0.687030 *  0.123410 *   0.00000    1.000000    
     35 C     c    0.071610 *  0.510040 *  0.779400 *   0.00000    1.000000    
     36 C     c    0.326190 *  0.102150 *  0.509580 *   0.00000    1.000000    
     37 C     c    0.121970 *  0.741100 *  0.423810 *   0.00000    1.000000    
     38 C     c    0.542650 *  0.314790 *  0.957100 *   0.00000    1.000000    
     39 C     c    0.063420 *  0.131370 *  0.109250 *   0.00000    1.000000    
     40 C     c    0.769650 *  0.942180 *  0.796810 *   0.00000    1.000000    
     41 C     c    0.392750 *  0.558230 *  0.534200 *   0.00000    1.000000    
     42 C     c    0.068180 *  0.896530 *  0.498720 *   0.00000    1.000000    
     43 C     c    0.001700 *  0.428840 *  0.954850 *   0.00000    1.000000    
     44 C     c    0.238470 *  0.500650 *  0.156150 *   0.00000    1.000000    
     45 C     c    0.195650 *  0.672080 *  0.768160 *   0.00000    1.000000    
     46 C     c    0.892950 *  0.519810 *  0.081840 *   0.00000    1.000000    
     47 C     c    0.799980 *  0.863030 *  0.155410 *   0.00000    1.000000    
     48 C     c    0.985830 *  0.222010 *  0.949250 *   0.00000    1.000000    
     49 C     c    0.775600 *  0.805360 *  0.350140 *   0.00000    1.000000    
     50 C     c    0.821570 *  0.700470 *  0.025360 *   0.00000    1.000000    
     51 C     c    0.158980 *  0.041530 *  0.607950 *   0.00000    1.000000    
     52 C     c    0.476040 *  0.263670 *  0.276630 *   0.00000    1.000000    
     53 C     c    0.434680 *  0.399100 *  0.122780 *   0.00000    1.000000    
     54 C     c    0.365660 *  0.086630 *  0.294640 *   0.00000    1.000000    
     55 C     c    0.624160 *  0.266270 *  0.391710 *   0.00000    1.000000    
     56 C     c    0.422290 *  0.211340 *  0.832230 *   0.00000    1.000000    
     57 C     c    0.643820 *  0.455720 *  0.850330 *   0.00000    1.000000    
     58 C     c    0.737120 *  0.967710 *  0.602660 *   0.00000    1.000000    
     59 C     c    0.099210 *  0.802470 *  0.043610 *   0.00000    1.000000    
     60 C     c    0.617730 *  0.536110 *  0.254430 *   0.00000    1.000000    
     61 C     c    0.572990 *  0.809180 *  0.390000 *   0.00000    1.000000    
     62 C     c    0.027000 *  0.208410 *  0.602340 *   0.00000    1.000000    
     63 C     c    0.640770 *  0.641500 *  0.932270 *   0.00000    1.000000    
     64 C     c    0.588560 *  0.824650 *  0.852350 *   0.00000    1.000000    
--------------------------------------------------------------------------------


  Constraints : 

--------------------------------------------------------------------------------
  Constraint no.      Unconstrained     Constrained    Coefficient    Offset
                         Variable         Variable
--------------------------------------------------------------------------------
           1              Strain 1        Strain 2       1.00000      0.0000
           2              Strain 1        Strain 3       1.00000      0.0000
--------------------------------------------------------------------------------


********************************************************************************
*  General input information                                                   *
********************************************************************************

  Species output for all configurations : 

--------------------------------------------------------------------------------
  Species    Type    Atomic    Atomic    Charge       Radii (Angs)     Library
                     Number     Mass       (e)     Cova   Ionic  VDW   Symbol
--------------------------------------------------------------------------------
    C        Core        6      12.01   0.000000   0.770  0.000  1.530          
--------------------------------------------------------------------------------


  Lattice summation method               =    Ewald          (3-D)
                                         =    Parry          (2-D)
                                         =    Saunders et al (1-D)
  Accuracy factor for lattice sums       =   12.000


  Analytic derivatives to be used

  Time limit = Infinity

  Maximum range for interatomic potentials =    100000.000000 Angstroms

  Brenner et al 2002 potential to be used with explicit splines for P


********************************************************************************
*  Output for configuration   1                                                *
********************************************************************************


  Components of energy : 

--------------------------------------------------------------------------------
  Interatomic potentials     =           0.00000000 eV    
  Brenner potentials         =        -428.16022547 eV    
  Monopole - monopole (real) =           0.00000000 eV    
  Monopole - monopole (recip)=           0.00000000 eV    
  Monopole - monopole (total)=           0.00000000 eV    
--------------------------------------------------------------------------------
  Total lattice energy       =        -428.16022547 eV    
--------------------------------------------------------------------------------
  Total lattice energy       =          -41310.9167 kJ/(mole unit cells)
--------------------------------------------------------------------------------


  Number of variables =      189

  Maximum number of calculations  =          2000
  Maximum Hessian update interval =            10
  Maximum step size               =   1.000000000
  Maximum parameter tolerance     =   0.000010000
  Maximum function  tolerance     =   0.000010000
  Maximum gradient  tolerance     =   0.001000000
  Maximum gradient  component     =   0.010000000

  Symmetry not applied to optimisation

  Conjugate gradient optimiser to be used

  Lower half triangular hessian to be used

  Start of bulk optimisation :

  Cycle:      0 Energy:      -428.160225  Gnorm:      0.148422  CPU:    0.023
  Cycle:      1 Energy:      -428.199891  Gnorm:      0.068409  CPU:    0.038
  Cycle:      2 Energy:      -428.213634  Gnorm:      0.062573  CPU:    0.064
  Cycle:      3 Energy:      -428.228398  Gnorm:      0.053036  CPU:    0.075
  Cycle:      4 Energy:      -428.236954  Gnorm:      0.042330  CPU:    0.101
  Cycle:      5 Energy:      -428.244058  Gnorm:      0.043018  CPU:    0.114
  Cycle:      6 Energy:      -428.248617  Gnorm:      0.032196  CPU:    0.136
  Cycle:      7 Energy:      -428.251653  Gnorm:      0.027855  CPU:    0.161
  Cycle:      8 Energy:      -428.253641  Gnorm:      0.025502  CPU:    0.179
  Cycle:      9 Energy:      -428.255364  Gnorm:      0.016938  CPU:    0.214
  Cycle:     10 Energy:      -428.256121  Gnorm:      0.015427  CPU:    0.239
  Cycle:     11 Energy:      -428.256684  Gnorm:      0.011960  CPU:    0.271
  Cycle:     12 Energy:      -428.257212  Gnorm:      0.012169  CPU:    0.292
  Cycle:     13 Energy:      -428.257574  Gnorm:      0.009502  CPU:    0.300
  Cycle:     14 Energy:      -428.258067  Gnorm:      0.011789  CPU:    0.326
  Cycle:     15 Energy:      -428.258457  Gnorm:      0.009613  CPU:    0.336
  Cycle:     16 Energy:      -428.258769  Gnorm:      0.008044  CPU:    0.360
  Cycle:     17 Energy:      -428.258891  Gnorm:      0.006602  CPU:    0.368
  Cycle:     18 Energy:      -428.259162  Gnorm:      0.007181  CPU:    0.394
  Cycle:     19 Energy:      -428.259332  Gnorm:      0.008238  CPU:    0.402
  Cycle:     20 Energy:      -428.259412  Gnorm:      0.003492  CPU:    0.425
  Cycle:     21 Energy:      -428.259453  Gnorm:      0.002824  CPU:    0.434
  Cycle:     22 Energy:      -428.259502  Gnorm:      0.004536  CPU:    0.444
  Cycle:     23 Energy:      -428.259555  Gnorm:      0.003938  CPU:    0.465
  Cycle:     24 Energy:      -428.259591  Gnorm:      0.003516  CPU:    0.473
  Cycle:     25 Energy:      -428.259633  Gnorm:      0.002965  CPU:    0.499
  Cycle:     26 Energy:      -428.259661  Gnorm:      0.003218  CPU:    0.518
  Cycle:     27 Energy:      -428.259699  Gnorm:      0.003165  CPU:    0.534
  Cycle:     28 Energy:      -428.259770  Gnorm:      0.004791  CPU:    0.559
  Cycle:     29 Energy:      -428.259826  Gnorm:      0.003631  CPU:    0.567
  Cycle:     30 Energy:      -428.259853  Gnorm:      0.002700  CPU:    0.590
  Cycle:     31 Energy:      -428.259868  Gnorm:      0.001506  CPU:    0.599
  Cycle:     32 Energy:      -428.259878  Gnorm:      0.001779  CPU:    0.625
  Cycle:     33 Energy:      -428.259886  Gnorm:      0.001863  CPU:    0.635
  Cycle:     34 Energy:      -428.259915  Gnorm:      0.002223  CPU:    0.674
  Cycle:     35 Energy:      -428.259936  Gnorm:      0.003200  CPU:    0.682
  Cycle:     36 Energy:      -428.259982  Gnorm:      0.003637  CPU:    0.706
  Cycle:     37 Energy:      -428.260012  Gnorm:      0.003141  CPU:    0.716
  Cycle:     38 Energy:      -428.260062  Gnorm:      0.003000  CPU:    0.741
  Cycle:     39 Energy:      -428.260085  Gnorm:      0.002907  CPU:    0.758
  Cycle:     40 Energy:      -428.260100  Gnorm:      0.002286  CPU:    0.775
  Cycle:     41 Energy:      -428.260117  Gnorm:      0.001769  CPU:    0.800
  Cycle:     42 Energy:      -428.260130  Gnorm:      0.002265  CPU:    0.809
  Cycle:     43 Energy:      -428.260143  Gnorm:      0.001993  CPU:    0.831
  Cycle:     44 Energy:      -428.260151  Gnorm:      0.001434  CPU:    0.843
  Cycle:     45 Energy:      -428.260160  Gnorm:      0.001350  CPU:    0.869
  Cycle:     46 Energy:      -428.260164  Gnorm:      0.001234  CPU:    0.888
  Cycle:     47 Energy:      -428.260167  Gnorm:      0.000865  CPU:    0.902
  Cycle:     48 Energy:      -428.260173  Gnorm:      0.001284  CPU:    0.926
  Cycle:     49 Energy:      -428.260175  Gnorm:      0.001232  CPU:    0.936
  Cycle:     50 Energy:      -428.260178  Gnorm:      0.000760  CPU:    0.959
  Cycle:     51 Energy:      -428.260180  Gnorm:      0.000531  CPU:    0.971
  Cycle:     52 Energy:      -428.260181  Gnorm:      0.000491  CPU:    0.992
  Cycle:     53 Energy:      -428.260182  Gnorm:      0.000474  CPU:    1.016
  Cycle:     54 Energy:      -428.260182  Gnorm:      0.000466  CPU:    1.041
  Cycle:     55 Energy:      -428.260183  Gnorm:      0.000456  CPU:    1.050
  Cycle:     56 Energy:      -428.260183  Gnorm:      0.000454  CPU:    1.074
  Cycle:     57 Energy:      -428.260184  Gnorm:      0.000453  CPU:    1.082
  Cycle:     58 Energy:      -428.260184  Gnorm:      0.000453  CPU:    1.106
  Cycle:     59 Energy:      -428.260184  Gnorm:      0.000453  CPU:    1.115
  Cycle:     60 Energy:      -428.260218  Gnorm:      0.000530  CPU:    1.152
  Cycle:     61 Energy:      -428.260225  Gnorm:      0.001047  CPU:    1.175
  Cycle:     62 Energy:      -428.260232  Gnorm:      0.002351  CPU:    1.185
  Cycle:     63 Energy:      -428.260243  Gnorm:      0.001813  CPU:    1.209
  Cycle:     64 Energy:      -428.260250  Gnorm:      0.001240  CPU:    1.217
  Cycle:     65 Energy:      -428.260257  Gnorm:      0.000843  CPU:    1.243
  Cycle:     66 Energy:      -428.260263  Gnorm:      0.001641  CPU:    1.271
  Cycle:     67 Energy:      -428.260268  Gnorm:      0.001023  CPU:    1.295
  Cycle:     68 Energy:      -428.260273  Gnorm:      0.001561  CPU:    1.305
  Cycle:     69 Energy:      -428.260283  Gnorm:      0.001048  CPU:    1.331
  Cycle:     70 Energy:      -428.260285  Gnorm:      0.000710  CPU:    1.340
  Cycle:     71 Energy:      -428.260286  Gnorm:      0.000526  CPU:    1.357
  Cycle:     72 Energy:      -428.260287  Gnorm:      0.000424  CPU:    1.372
  Cycle:     73 Energy:      -428.260287  Gnorm:      0.000367  CPU:    1.379
  Cycle:     74 Energy:      -428.260287  Gnorm:      0.000352  CPU:    1.404
  Cycle:     75 Energy:      -428.260288  Gnorm:      0.000344  CPU:    1.412
  Cycle:     76 Energy:      -428.260288  Gnorm:      0.000341  CPU:    1.436


  **** Optimisation achieved ****


  Final energy =    -428.26028889 eV
  Final Gnorm  =       0.00033114

  Components of energy : 

--------------------------------------------------------------------------------
  Interatomic potentials     =           0.00000000 eV    
  Brenner potentials         =        -428.26028889 eV    
  Monopole - monopole (real) =           0.00000000 eV    
  Monopole - monopole (recip)=           0.00000000 eV    
  Monopole - monopole (total)=           0.00000000 eV    
--------------------------------------------------------------------------------
  Total lattice energy       =        -428.26028889 eV    
--------------------------------------------------------------------------------
  Total lattice energy       =          -41320.5713 kJ/(mole unit cells)
--------------------------------------------------------------------------------

  Final fractional coordinates of atoms :

--------------------------------------------------------------------------------
   No.  Atomic        x           y          z          Radius
        Label       (Frac)      (Frac)     (Frac)       (Angs) 
--------------------------------------------------------------------------------
     1  C     c     0.025100    0.587150    0.365320    0.000000
     2  C     c     0.260817    0.102180    0.106785    0.000000
     3  C     c     0.099996    0.439485    0.267104    0.000000
     4  C     c     0.879235    0.967317    0.452680    0.000000
     5  C     c     0.477802    0.916093    0.989088    0.000000
     6  C     c     0.785991    0.448297    0.221416    0.000000
     7  C     c     0.919917    0.634565    0.717675    0.000000
     8  C     c     0.810378    0.551723    0.589432    0.000000
     9  C     c     0.132575    0.380468    0.639756    0.000000
    10  C     c     0.405613    0.763699    0.117491    0.000000
    11  C     c     0.888524    0.254649    0.746007    0.000000
    12  C     c     0.572203    0.896333    0.557048    0.000000
    13  C     c     0.425391    0.240877    0.632049    0.000000
    14  C     c     0.202250    0.982297    0.797716    0.000000
    15  C     c     0.521846    0.607785    0.406128    0.000000
    16  C     c     0.988791    0.937454    0.119509    0.000000
    17  C     c     0.138391    0.820657    0.858313    0.000000
    18  C     c     0.349690    0.688483    0.663257    0.000000
    19  C     c     0.737447    0.382509    0.683167    0.000000
    20  C     c     0.043877    0.260014    0.264911    0.000000
    21  C     c     0.936109    0.174636    0.420054    0.000000
    22  C     c     0.843827    0.614623    0.415224    0.000000
    23  C     c     0.480775    0.815940    0.689219    0.000000
    24  C     c     0.794199    0.298768    0.328785    0.000000
    25  C     c     0.668473    0.158321    0.014999    0.000000
    26  C     c     0.520424    0.603950    0.088559    0.000000
    27  C     c     0.605240    0.280578    0.570974    0.000000
    28  C     c     0.635325    0.987507    0.117877    0.000000
    29  C     c     0.481000    0.915703    0.249770    0.000000
    30  C     c     0.340192    0.055713    0.923084    0.000000
    31  C     c     0.809275    0.110947    0.882414    0.000000
    32  C     c     0.863056    0.763677    0.837397    0.000000
    33  C     c     0.307732    0.395503    0.577417    0.000000
    34  C     c     0.228292    0.687180    0.123583    0.000000
    35  C     c     0.071308    0.511645    0.779020    0.000000
    36  C     c     0.325848    0.103221    0.508525    0.000000
    37  C     c     0.119175    0.741911    0.424021    0.000000
    38  C     c     0.542755    0.313777    0.956623    0.000000
    39  C     c     0.062231    0.132511    0.108155    0.000000
    40  C     c     0.769161    0.940125    0.795959    0.000000
    41  C     c     0.392991    0.557469    0.534682    0.000000
    42  C     c     0.067830    0.897488    0.497967    0.000000
    43  C     c     0.998690    0.429109    0.954294    0.000000
    44  C     c     0.239736    0.501383    0.157772    0.000000
    45  C     c     0.198334    0.670909    0.769209    0.000000
    46  C     c     0.890402    0.518958    0.081602    0.000000
    47  C     c     0.801769    0.861287    0.154000    0.000000
    48  C     c     0.982943    0.222642    0.948077    0.000000
    49  C     c     0.776294    0.804666    0.349282    0.000000
    50  C     c     0.819791    0.698950    0.025222    0.000000
    51  C     c     0.159297    0.041596    0.607330    0.000000
    52  C     c     0.477789    0.263474    0.276160    0.000000
    53  C     c     0.435206    0.399987    0.123102    0.000000
    54  C     c     0.367365    0.086541    0.291537    0.000000
    55  C     c     0.624412    0.267008    0.392056    0.000000
    56  C     c     0.422939    0.209863    0.831879    0.000000
    57  C     c     0.643778    0.454366    0.850107    0.000000
    58  C     c     0.737941    0.964102    0.602180    0.000000
    59  C     c     0.102141    0.802928    0.043137    0.000000
    60  C     c     0.616620    0.535800    0.254286    0.000000
    61  C     c     0.573826    0.807654    0.388739    0.000000
    62  C     c     0.027148    0.209813    0.603024    0.000000
    63  C     c     0.639769    0.639589    0.932487    0.000000
    64  C     c     0.588383    0.822862    0.852480    0.000000
--------------------------------------------------------------------------------

  Final internal derivatives :

--------------------------------------------------------------------------------
   No.  Atomic          a             b             c           Radius
        Label          (eV)          (eV)          (eV)        (eV/Angs)
--------------------------------------------------------------------------------
      1 C     c       0.000000      0.000000      0.000000      0.000000
      2 C     c       0.001004      0.007120      0.003033      0.000000
      3 C     c       0.001010      0.003804      0.000120      0.000000
      4 C     c       0.000014      0.005925      0.002572      0.000000
      5 C     c      -0.000220      0.008045      0.003807      0.000000
      6 C     c       0.000598      0.006026      0.002391      0.000000
      7 C     c       0.001962      0.009253      0.002626      0.000000
      8 C     c       0.000776      0.006333      0.004897      0.000000
      9 C     c       0.001533      0.007127      0.004158      0.000000
     10 C     c       0.000965      0.007564      0.005237      0.000000
     11 C     c      -0.000159      0.008116      0.003663      0.000000
     12 C     c       0.000862      0.008005      0.003722      0.000000
     13 C     c      -0.000210      0.007417      0.004016      0.000000
     14 C     c       0.000699      0.006949      0.004199      0.000000
     15 C     c       0.000661      0.007466      0.005158      0.000000
     16 C     c       0.000313      0.006632      0.002832      0.000000
     17 C     c       0.000197      0.007048      0.003452      0.000000
     18 C     c       0.001017      0.006910      0.003450      0.000000
     19 C     c      -0.000713      0.007374      0.003832      0.000000
     20 C     c       0.001849      0.004222      0.003499      0.000000
     21 C     c       0.000487      0.006396      0.001543      0.000000
     22 C     c      -0.000025      0.004511      0.003733      0.000000
     23 C     c       0.001149      0.006944      0.003568      0.000000
     24 C     c       0.001457      0.006303      0.003206      0.000000
     25 C     c       0.001249      0.007929      0.003997      0.000000
     26 C     c       0.000181      0.006925      0.003890      0.000000
     27 C     c      -0.000741      0.008250      0.004188      0.000000
     28 C     c       0.001322      0.006925      0.004785      0.000000
     29 C     c       0.001552      0.006778      0.003366      0.000000
     30 C     c       0.000151      0.007325      0.004010      0.000000
     31 C     c       0.001148      0.006830      0.003416      0.000000
     32 C     c       0.002486      0.008994      0.004161      0.000000
     33 C     c       0.001320      0.007599      0.003317      0.000000
     34 C     c       0.000893      0.006819      0.003331      0.000000
     35 C     c       0.000729      0.006758      0.004795      0.000000
     36 C     c       0.001687      0.008336      0.002905      0.000000
     37 C     c       0.001624      0.003064      0.002513      0.000000
     38 C     c       0.001425      0.007946      0.003127      0.000000
     39 C     c       0.001160      0.005112      0.003235      0.000000
     40 C     c       0.001157      0.007538      0.003527      0.000000
     41 C     c       0.001327      0.007154      0.004027      0.000000
     42 C     c       0.000842      0.004482      0.002927      0.000000
     43 C     c       0.000745      0.005286      0.003668      0.000000
     44 C     c       0.000674      0.006392      0.001957      0.000000
     45 C     c       0.000459      0.007462      0.002996      0.000000
     46 C     c       0.001160      0.006791      0.002910      0.000000
     47 C     c       0.000940      0.006961      0.003832      0.000000
     48 C     c       0.000691      0.005390      0.003595      0.000000
     49 C     c       0.003397      0.007025      0.004227      0.000000
     50 C     c       0.000519      0.007148      0.003020      0.000000
     51 C     c       0.002798      0.004894      0.002979      0.000000
     52 C     c       0.001137      0.007586      0.003617      0.000000
     53 C     c       0.001855      0.006461      0.003584      0.000000
     54 C     c       0.000270      0.008769      0.004491      0.000000
     55 C     c       0.000790      0.007509      0.004273      0.000000
     56 C     c       0.000683      0.006842      0.003733      0.000000
     57 C     c       0.002158      0.007231      0.004052      0.000000
     58 C     c       0.001998      0.005541      0.003550      0.000000
     59 C     c       0.000105      0.006341      0.003363      0.000000
     60 C     c      -0.000030      0.007230      0.004192      0.000000
     61 C     c       0.002278      0.007128      0.004133      0.000000
     62 C     c       0.001127      0.005456      0.002116      0.000000
     63 C     c       0.000249      0.006474      0.003296      0.000000
     64 C     c       0.001135      0.007744      0.003818      0.000000
--------------------------------------------------------------------------------
  Maximum abs         0.003397      0.009253      0.005237      0.000000
--------------------------------------------------------------------------------


  Time to end of optimisation =       1.4449 seconds


  Peak dynamic memory used =       1.98 MB 


  Timing analysis for GULP :

--------------------------------------------------------------------------------
  Task / Subroutine                                          Time (Seconds)
--------------------------------------------------------------------------------
  Calculation of Brenner energy and derivatives                   1.4208
--------------------------------------------------------------------------------
  Total CPU time                                                  1.4449
--------------------------------------------------------------------------------


  CIF file written as opti_1.0100.cif


  Job Finished at 16:48.28 11th August     2020                               

