********************************************************************************
*                       GENERAL UTILITY LATTICE PROGRAM                        *
*                                 Julian Gale                                  *
*                       Curtin Institute for Computation                       *
*                    School of Molecular and Life Sciences                     *
*                    Curtin University, Western Australia                      *
********************************************************************************
* Version = 5.2.0 * Last modified =  17th December 2019                        *
********************************************************************************
*  optimise     - perform optimisation run                                     *
*  conv         - constant volume calculation                                  *
*  isotropic    - only isotropic cell expansion to be allowed                  *
*  conjugate    - use conjugate gradients minimiser                            *
********************************************************************************
* ASE calculation                                                              *
********************************************************************************


  Job Started  at 23:37.21 10th August     2020                               

  Number of CPUs =     1


  Total number of configurations input =      1

********************************************************************************
*  Input for Configuration =   1                                               *
********************************************************************************

  Formula = C64                                                         

  Number of irreducible atoms/shells =      64


  Total number atoms/shells =      64

  Dimensionality = 3               :  Bulk   



  Cartesian lattice vectors (Angstroms) :

        7.634260    0.000000    0.000000
        0.000000    7.634260    0.000000
        0.000000    0.000000    7.634260

  Cell parameters (Angstroms/Degrees):

  a =       7.6343    alpha =  90.0000
  b =       7.6343    beta  =  90.0000
  c =       7.6343    gamma =  90.0000

  Initial cell volume =         444.939374 Angs**3

  Temperature of configuration =   0.00     K 

  Pressure of configuration =         0.000 GPa 

  Fractional coordinates of asymmetric unit :

--------------------------------------------------------------------------------
   No.  Atomic       x           y          z         Charge      Occupancy
        Label      (Frac)      (Frac)     (Frac)        (e)         (Frac)  
--------------------------------------------------------------------------------
      1 C     c    0.025100    0.587150    0.365320     0.00000    1.000000    
      2 C     c    0.261960 *  0.102350 *  0.107880 *   0.00000    1.000000    
      3 C     c    0.100080 *  0.438460 *  0.267700 *   0.00000    1.000000    
      4 C     c    0.878960 *  0.966820 *  0.452800 *   0.00000    1.000000    
      5 C     c    0.476970 *  0.917400 *  0.988740 *   0.00000    1.000000    
      6 C     c    0.786990 *  0.447150 *  0.220140 *   0.00000    1.000000    
      7 C     c    0.923040 *  0.637530 *  0.717050 *   0.00000    1.000000    
      8 C     c    0.810170 *  0.554570 *  0.590270 *   0.00000    1.000000    
      9 C     c    0.131790 *  0.380040 *  0.638710 *   0.00000    1.000000    
     10 C     c    0.404270 *  0.764550 *  0.117610 *   0.00000    1.000000    
     11 C     c    0.889700 *  0.256980 *  0.746610 *   0.00000    1.000000    
     12 C     c    0.569910 *  0.900620 *  0.557400 *   0.00000    1.000000    
     13 C     c    0.425650 *  0.240870 *  0.632440 *   0.00000    1.000000    
     14 C     c    0.200020 *  0.983730 *  0.798590 *   0.00000    1.000000    
     15 C     c    0.523060 *  0.608540 *  0.406760 *   0.00000    1.000000    
     16 C     c    0.987720 *  0.938200 *  0.121300 *   0.00000    1.000000    
     17 C     c    0.134680 *  0.821550 *  0.858210 *   0.00000    1.000000    
     18 C     c    0.347750 *  0.690110 *  0.662490 *   0.00000    1.000000    
     19 C     c    0.738190 *  0.384180 *  0.683430 *   0.00000    1.000000    
     20 C     c    0.046460 *  0.258110 *  0.266300 *   0.00000    1.000000    
     21 C     c    0.936080 *  0.173340 *  0.419850 *   0.00000    1.000000    
     22 C     c    0.843300 *  0.615880 *  0.414960 *   0.00000    1.000000    
     23 C     c    0.478470 *  0.818970 *  0.689890 *   0.00000    1.000000    
     24 C     c    0.794120 *  0.296780 *  0.327440 *   0.00000    1.000000    
     25 C     c    0.669440 *  0.161030 *  0.017330 *   0.00000    1.000000    
     26 C     c    0.520340 *  0.604650 *  0.088350 *   0.00000    1.000000    
     27 C     c    0.606080 *  0.280540 *  0.571440 *   0.00000    1.000000    
     28 C     c    0.633890 *  0.989520 *  0.119020 *   0.00000    1.000000    
     29 C     c    0.479160 *  0.916090 *  0.251290 *   0.00000    1.000000    
     30 C     c    0.339390 *  0.056680 *  0.923070 *   0.00000    1.000000    
     31 C     c    0.810280 *  0.113020 *  0.884120 *   0.00000    1.000000    
     32 C     c    0.867960 *  0.767490 *  0.838100 *   0.00000    1.000000    
     33 C     c    0.307470 *  0.395320 *  0.575810 *   0.00000    1.000000    
     34 C     c    0.226620 *  0.687030 *  0.123410 *   0.00000    1.000000    
     35 C     c    0.071610 *  0.510040 *  0.779400 *   0.00000    1.000000    
     36 C     c    0.326190 *  0.102150 *  0.509580 *   0.00000    1.000000    
     37 C     c    0.121970 *  0.741100 *  0.423810 *   0.00000    1.000000    
     38 C     c    0.542650 *  0.314790 *  0.957100 *   0.00000    1.000000    
     39 C     c    0.063420 *  0.131370 *  0.109250 *   0.00000    1.000000    
     40 C     c    0.769650 *  0.942180 *  0.796810 *   0.00000    1.000000    
     41 C     c    0.392750 *  0.558230 *  0.534200 *   0.00000    1.000000    
     42 C     c    0.068190 *  0.896530 *  0.498720 *   0.00000    1.000000    
     43 C     c    0.001700 *  0.428840 *  0.954850 *   0.00000    1.000000    
     44 C     c    0.238470 *  0.500650 *  0.156150 *   0.00000    1.000000    
     45 C     c    0.195640 *  0.672080 *  0.768160 *   0.00000    1.000000    
     46 C     c    0.892950 *  0.519810 *  0.081840 *   0.00000    1.000000    
     47 C     c    0.799970 *  0.863030 *  0.155410 *   0.00000    1.000000    
     48 C     c    0.985830 *  0.222020 *  0.949250 *   0.00000    1.000000    
     49 C     c    0.775600 *  0.805370 *  0.350130 *   0.00000    1.000000    
     50 C     c    0.821570 *  0.700470 *  0.025360 *   0.00000    1.000000    
     51 C     c    0.158980 *  0.041530 *  0.607950 *   0.00000    1.000000    
     52 C     c    0.476040 *  0.263670 *  0.276630 *   0.00000    1.000000    
     53 C     c    0.434680 *  0.399100 *  0.122780 *   0.00000    1.000000    
     54 C     c    0.365660 *  0.086630 *  0.294640 *   0.00000    1.000000    
     55 C     c    0.624160 *  0.266270 *  0.391700 *   0.00000    1.000000    
     56 C     c    0.422290 *  0.211340 *  0.832230 *   0.00000    1.000000    
     57 C     c    0.643820 *  0.455720 *  0.850330 *   0.00000    1.000000    
     58 C     c    0.737120 *  0.967710 *  0.602660 *   0.00000    1.000000    
     59 C     c    0.099210 *  0.802470 *  0.043610 *   0.00000    1.000000    
     60 C     c    0.617730 *  0.536110 *  0.254430 *   0.00000    1.000000    
     61 C     c    0.572990 *  0.809180 *  0.390000 *   0.00000    1.000000    
     62 C     c    0.027000 *  0.208410 *  0.602340 *   0.00000    1.000000    
     63 C     c    0.640770 *  0.641500 *  0.932270 *   0.00000    1.000000    
     64 C     c    0.588560 *  0.824650 *  0.852350 *   0.00000    1.000000    
--------------------------------------------------------------------------------


  Constraints : 

--------------------------------------------------------------------------------
  Constraint no.      Unconstrained     Constrained    Coefficient    Offset
                         Variable         Variable
--------------------------------------------------------------------------------
           1              Strain 1        Strain 2       1.00000      0.0000
           2              Strain 1        Strain 3       1.00000      0.0000
--------------------------------------------------------------------------------


********************************************************************************
*  General input information                                                   *
********************************************************************************

  Species output for all configurations : 

--------------------------------------------------------------------------------
  Species    Type    Atomic    Atomic    Charge       Radii (Angs)     Library
                     Number     Mass       (e)     Cova   Ionic  VDW   Symbol
--------------------------------------------------------------------------------
    C        Core        6      12.01   0.000000   0.770  0.000  1.530          
--------------------------------------------------------------------------------


  Lattice summation method               =    Ewald          (3-D)
                                         =    Parry          (2-D)
                                         =    Saunders et al (1-D)
  Accuracy factor for lattice sums       =   12.000


  Analytic derivatives to be used

  Time limit = Infinity

  Maximum range for interatomic potentials =    100000.000000 Angstroms

  Brenner et al 2002 potential to be used with explicit splines for P


********************************************************************************
*  Output for configuration   1                                                *
********************************************************************************


  Components of energy : 

--------------------------------------------------------------------------------
  Interatomic potentials     =           0.00000000 eV    
  Brenner potentials         =        -428.15918620 eV    
  Monopole - monopole (real) =           0.00000000 eV    
  Monopole - monopole (recip)=           0.00000000 eV    
  Monopole - monopole (total)=           0.00000000 eV    
--------------------------------------------------------------------------------
  Total lattice energy       =        -428.15918620 eV    
--------------------------------------------------------------------------------
  Total lattice energy       =          -41310.8165 kJ/(mole unit cells)
--------------------------------------------------------------------------------


  Number of variables =      189

  Maximum number of calculations  =          2000
  Maximum Hessian update interval =            10
  Maximum step size               =   1.000000000
  Maximum parameter tolerance     =   0.000010000
  Maximum function  tolerance     =   0.000010000
  Maximum gradient  tolerance     =   0.001000000
  Maximum gradient  component     =   0.010000000

  Symmetry not applied to optimisation

  Conjugate gradient optimiser to be used

  Lower half triangular hessian to be used

  Start of bulk optimisation :

  Cycle:      0 Energy:      -428.159186  Gnorm:      0.148505  CPU:    0.031
  Cycle:      1 Energy:      -428.199010  Gnorm:      0.068557  CPU:    0.063
  Cycle:      2 Energy:      -428.212759  Gnorm:      0.062683  CPU:    0.073
  Cycle:      3 Energy:      -428.227620  Gnorm:      0.053085  CPU:    0.081
  Cycle:      4 Energy:      -428.236218  Gnorm:      0.042150  CPU:    0.107
  Cycle:      5 Energy:      -428.243341  Gnorm:      0.042131  CPU:    0.120
  Cycle:      6 Energy:      -428.247872  Gnorm:      0.032709  CPU:    0.126
  Cycle:      7 Energy:      -428.250790  Gnorm:      0.027524  CPU:    0.149
  Cycle:      8 Energy:      -428.252971  Gnorm:      0.024866  CPU:    0.158
  Cycle:      9 Energy:      -428.254753  Gnorm:      0.017687  CPU:    0.166
  Cycle:     10 Energy:      -428.255461  Gnorm:      0.014172  CPU:    0.172
  Cycle:     11 Energy:      -428.256065  Gnorm:      0.011168  CPU:    0.196
  Cycle:     12 Energy:      -428.256594  Gnorm:      0.013935  CPU:    0.205
  Cycle:     13 Energy:      -428.257038  Gnorm:      0.010300  CPU:    0.212
  Cycle:     14 Energy:      -428.257429  Gnorm:      0.011371  CPU:    0.218
  Cycle:     15 Energy:      -428.257796  Gnorm:      0.008488  CPU:    0.244
  Cycle:     16 Energy:      -428.258123  Gnorm:      0.007784  CPU:    0.254
  Cycle:     17 Energy:      -428.258265  Gnorm:      0.006746  CPU:    0.260
  Cycle:     18 Energy:      -428.258531  Gnorm:      0.007372  CPU:    0.277
  Cycle:     19 Energy:      -428.258691  Gnorm:      0.007287  CPU:    0.292
  Cycle:     20 Energy:      -428.258765  Gnorm:      0.004101  CPU:    0.300
  Cycle:     21 Energy:      -428.258817  Gnorm:      0.003361  CPU:    0.307
  Cycle:     22 Energy:      -428.258851  Gnorm:      0.003353  CPU:    0.327
  Cycle:     23 Energy:      -428.258900  Gnorm:      0.003764  CPU:    0.339
  Cycle:     24 Energy:      -428.258938  Gnorm:      0.003786  CPU:    0.346
  Cycle:     25 Energy:      -428.258996  Gnorm:      0.002850  CPU:    0.353
  Cycle:     26 Energy:      -428.259060  Gnorm:      0.003363  CPU:    0.379
  Cycle:     27 Energy:      -428.259090  Gnorm:      0.003626  CPU:    0.387
  Cycle:     28 Energy:      -428.259144  Gnorm:      0.003144  CPU:    0.395
  Cycle:     29 Energy:      -428.259196  Gnorm:      0.004761  CPU:    0.414
  Cycle:     30 Energy:      -428.259222  Gnorm:      0.002519  CPU:    0.428
  Cycle:     31 Energy:      -428.259243  Gnorm:      0.002517  CPU:    0.436
  Cycle:     32 Energy:      -428.259263  Gnorm:      0.002106  CPU:    0.442
  Cycle:     33 Energy:      -428.259282  Gnorm:      0.002161  CPU:    0.467
  Cycle:     34 Energy:      -428.259291  Gnorm:      0.001812  CPU:    0.476
  Cycle:     35 Energy:      -428.259308  Gnorm:      0.002050  CPU:    0.484
  Cycle:     36 Energy:      -428.259320  Gnorm:      0.002061  CPU:    0.489
  Cycle:     37 Energy:      -428.259335  Gnorm:      0.001875  CPU:    0.516
  Cycle:     38 Energy:      -428.259349  Gnorm:      0.002210  CPU:    0.525
  Cycle:     39 Energy:      -428.259363  Gnorm:      0.002206  CPU:    0.531
  Cycle:     40 Energy:      -428.259373  Gnorm:      0.002062  CPU:    0.550
  Cycle:     41 Energy:      -428.259384  Gnorm:      0.001371  CPU:    0.563
  Cycle:     42 Energy:      -428.259393  Gnorm:      0.001469  CPU:    0.572
  Cycle:     43 Energy:      -428.259402  Gnorm:      0.001878  CPU:    0.577
  Cycle:     44 Energy:      -428.259412  Gnorm:      0.001470  CPU:    0.602
  Cycle:     45 Energy:      -428.259425  Gnorm:      0.002079  CPU:    0.611
  Cycle:     46 Energy:      -428.259436  Gnorm:      0.001797  CPU:    0.617
  Cycle:     47 Energy:      -428.259448  Gnorm:      0.001970  CPU:    0.623
  Cycle:     48 Energy:      -428.259457  Gnorm:      0.001595  CPU:    0.646
  Cycle:     49 Energy:      -428.259490  Gnorm:      0.003445  CPU:    0.659
  Cycle:     50 Energy:      -428.259504  Gnorm:      0.001660  CPU:    0.665
  Cycle:     51 Energy:      -428.259513  Gnorm:      0.001432  CPU:    0.686
  Cycle:     52 Energy:      -428.259518  Gnorm:      0.000939  CPU:    0.698
  Cycle:     53 Energy:      -428.259522  Gnorm:      0.001624  CPU:    0.707
  Cycle:     54 Energy:      -428.259525  Gnorm:      0.001411  CPU:    0.713
  Cycle:     55 Energy:      -428.259532  Gnorm:      0.001136  CPU:    0.739
  Cycle:     56 Energy:      -428.259535  Gnorm:      0.001124  CPU:    0.748
  Cycle:     57 Energy:      -428.259540  Gnorm:      0.000926  CPU:    0.755
  Cycle:     58 Energy:      -428.259543  Gnorm:      0.001247  CPU:    0.776
  Cycle:     59 Energy:      -428.259549  Gnorm:      0.001398  CPU:    0.788
  Cycle:     60 Energy:      -428.259552  Gnorm:      0.000678  CPU:    0.795
  Cycle:     61 Energy:      -428.259553  Gnorm:      0.000515  CPU:    0.811
  Cycle:     62 Energy:      -428.259554  Gnorm:      0.000488  CPU:    0.827
  Cycle:     63 Energy:      -428.259555  Gnorm:      0.000465  CPU:    0.834
  Cycle:     64 Energy:      -428.259555  Gnorm:      0.000450  CPU:    0.840
  Cycle:     65 Energy:      -428.259556  Gnorm:      0.000439  CPU:    0.866
  Cycle:     66 Energy:      -428.259556  Gnorm:      0.000431  CPU:    0.874
  Cycle:     67 Energy:      -428.259557  Gnorm:      0.000428  CPU:    0.880
  Cycle:     68 Energy:      -428.259557  Gnorm:      0.000427  CPU:    0.889
  Cycle:     69 Energy:      -428.259557  Gnorm:      0.000427  CPU:    0.910
  Cycle:     70 Energy:      -428.259574  Gnorm:      0.000923  CPU:    0.933
  Cycle:     71 Energy:      -428.259606  Gnorm:      0.001787  CPU:    0.954
  Cycle:     72 Energy:      -428.259612  Gnorm:      0.001343  CPU:    0.966
  Cycle:     73 Energy:      -428.259616  Gnorm:      0.001000  CPU:    0.980
  Cycle:     74 Energy:      -428.259619  Gnorm:      0.000549  CPU:    0.999
  Cycle:     75 Energy:      -428.259629  Gnorm:      0.001497  CPU:    1.007
  Cycle:     76 Energy:      -428.259636  Gnorm:      0.001660  CPU:    1.013
  Cycle:     77 Energy:      -428.259641  Gnorm:      0.001297  CPU:    1.036
  Cycle:     78 Energy:      -428.259649  Gnorm:      0.001347  CPU:    1.047
  Cycle:     79 Energy:      -428.259653  Gnorm:      0.001051  CPU:    1.053
  Cycle:     80 Energy:      -428.259655  Gnorm:      0.000775  CPU:    1.059
  Cycle:     81 Energy:      -428.259656  Gnorm:      0.000623  CPU:    1.083
  Cycle:     82 Energy:      -428.259657  Gnorm:      0.000608  CPU:    1.091
  Cycle:     83 Energy:      -428.259658  Gnorm:      0.000453  CPU:    1.098
  Cycle:     84 Energy:      -428.259659  Gnorm:      0.000539  CPU:    1.103
  Cycle:     85 Energy:      -428.259660  Gnorm:      0.000397  CPU:    1.128
  Cycle:     86 Energy:      -428.259660  Gnorm:      0.000369  CPU:    1.137
  Cycle:     87 Energy:      -428.259661  Gnorm:      0.000384  CPU:    1.143
  Cycle:     88 Energy:      -428.259662  Gnorm:      0.000323  CPU:    1.166
  Cycle:     89 Energy:      -428.259663  Gnorm:      0.000324  CPU:    1.175
  Cycle:     90 Energy:      -428.259664  Gnorm:      0.000466  CPU:    1.182
  Cycle:     91 Energy:      -428.259665  Gnorm:      0.000358  CPU:    1.187
  Cycle:     92 Energy:      -428.259665  Gnorm:      0.000311  CPU:    1.210


  **** Optimisation achieved ****


  Final energy =    -428.25966513 eV
  Final Gnorm  =       0.00028126

  Components of energy : 

--------------------------------------------------------------------------------
  Interatomic potentials     =           0.00000000 eV    
  Brenner potentials         =        -428.25966513 eV    
  Monopole - monopole (real) =           0.00000000 eV    
  Monopole - monopole (recip)=           0.00000000 eV    
  Monopole - monopole (total)=           0.00000000 eV    
--------------------------------------------------------------------------------
  Total lattice energy       =        -428.25966513 eV    
--------------------------------------------------------------------------------
  Total lattice energy       =          -41320.5111 kJ/(mole unit cells)
--------------------------------------------------------------------------------

  Final fractional coordinates of atoms :

--------------------------------------------------------------------------------
   No.  Atomic        x           y          z          Radius
        Label       (Frac)      (Frac)     (Frac)       (Angs) 
--------------------------------------------------------------------------------
     1  C     c     0.025100    0.587150    0.365320    0.000000
     2  C     c     0.260802    0.102103    0.106745    0.000000
     3  C     c     0.099976    0.439449    0.267103    0.000000
     4  C     c     0.879214    0.967256    0.452640    0.000000
     5  C     c     0.477795    0.916008    0.989043    0.000000
     6  C     c     0.785982    0.448231    0.221390    0.000000
     7  C     c     0.919886    0.634471    0.717639    0.000000
     8  C     c     0.810360    0.551635    0.589381    0.000000
     9  C     c     0.132567    0.380396    0.639713    0.000000
    10  C     c     0.405607    0.763616    0.117441    0.000000
    11  C     c     0.888508    0.254563    0.745967    0.000000
    12  C     c     0.572188    0.896247    0.557005    0.000000
    13  C     c     0.425380    0.240794    0.632008    0.000000
    14  C     c     0.202241    0.982219    0.797676    0.000000
    15  C     c     0.521830    0.607705    0.406081    0.000000
    16  C     c     0.988783    0.937382    0.119471    0.000000
    17  C     c     0.138387    0.820578    0.858273    0.000000
    18  C     c     0.349681    0.688397    0.663217    0.000000
    19  C     c     0.737432    0.382420    0.683123    0.000000
    20  C     c     0.043863    0.259968    0.264878    0.000000
    21  C     c     0.936099    0.174576    0.420022    0.000000
    22  C     c     0.843821    0.614567    0.415186    0.000000
    23  C     c     0.480766    0.815851    0.689175    0.000000
    24  C     c     0.794186    0.298699    0.328751    0.000000
    25  C     c     0.668458    0.158235    0.014956    0.000000
    26  C     c     0.520416    0.603866    0.088513    0.000000
    27  C     c     0.605228    0.280488    0.570931    0.000000
    28  C     c     0.635314    0.987423    0.117832    0.000000
    29  C     c     0.480988    0.915620    0.249723    0.000000
    30  C     c     0.340182    0.055631    0.923046    0.000000
    31  C     c     0.809262    0.110863    0.882372    0.000000
    32  C     c     0.863018    0.763582    0.837353    0.000000
    33  C     c     0.307723    0.395421    0.577376    0.000000
    34  C     c     0.228286    0.687109    0.123546    0.000000
    35  C     c     0.071295    0.511574    0.778975    0.000000
    36  C     c     0.325834    0.103144    0.508487    0.000000
    37  C     c     0.119177    0.741887    0.424001    0.000000
    38  C     c     0.542742    0.313697    0.956584    0.000000
    39  C     c     0.062217    0.132452    0.108122    0.000000
    40  C     c     0.769145    0.940043    0.795914    0.000000
    41  C     c     0.392979    0.557386    0.534639    0.000000
    42  C     c     0.067809    0.897450    0.497936    0.000000
    43  C     c     0.998675    0.429038    0.954256    0.000000
    44  C     c     0.239722    0.501318    0.157758    0.000000
    45  C     c     0.198330    0.670828    0.769173    0.000000
    46  C     c     0.890392    0.518884    0.081570    0.000000
    47  C     c     0.801762    0.861208    0.153957    0.000000
    48  C     c     0.982923    0.222574    0.948038    0.000000
    49  C     c     0.776275    0.804596    0.349243    0.000000
    50  C     c     0.819777    0.698869    0.025188    0.000000
    51  C     c     0.159281    0.041535    0.607297    0.000000
    52  C     c     0.477778    0.263389    0.276118    0.000000
    53  C     c     0.435183    0.399915    0.123069    0.000000
    54  C     c     0.367354    0.086456    0.291490    0.000000
    55  C     c     0.624400    0.266925    0.392013    0.000000
    56  C     c     0.422929    0.209779    0.831838    0.000000
    57  C     c     0.643765    0.454283    0.850063    0.000000
    58  C     c     0.737921    0.964024    0.602136    0.000000
    59  C     c     0.102138    0.802857    0.043099    0.000000
    60  C     c     0.616604    0.535721    0.254242    0.000000
    61  C     c     0.573809    0.807573    0.388694    0.000000
    62  C     c     0.027137    0.209749    0.602994    0.000000
    63  C     c     0.639761    0.639507    0.932441    0.000000
    64  C     c     0.588373    0.822777    0.852435    0.000000
--------------------------------------------------------------------------------

  Final internal derivatives :

--------------------------------------------------------------------------------
   No.  Atomic          a             b             c           Radius
        Label          (eV)          (eV)          (eV)        (eV/Angs)
--------------------------------------------------------------------------------
      1 C     c       0.000000      0.000000      0.000000      0.000000
      2 C     c       0.001317      0.006719      0.002903      0.000000
      3 C     c       0.001908      0.002921     -0.000598      0.000000
      4 C     c       0.002233      0.004899      0.002455      0.000000
      5 C     c       0.001094      0.006463      0.003335      0.000000
      6 C     c       0.001657      0.008016      0.005483      0.000000
      7 C     c       0.002568      0.006872      0.003019      0.000000
      8 C     c       0.001585      0.006761      0.004235      0.000000
      9 C     c       0.000529      0.005211      0.002742      0.000000
     10 C     c       0.000827      0.006723      0.003669      0.000000
     11 C     c       0.001221      0.006527      0.003055      0.000000
     12 C     c       0.001481      0.006360      0.003197      0.000000
     13 C     c       0.001038      0.006194      0.003051      0.000000
     14 C     c       0.000915      0.005572      0.003059      0.000000
     15 C     c       0.001167      0.006062      0.003573      0.000000
     16 C     c       0.001026      0.005395      0.002901      0.000000
     17 C     c       0.000618      0.005553      0.002959      0.000000
     18 C     c       0.001088      0.006123      0.003436      0.000000
     19 C     c       0.001093      0.006907      0.003499      0.000000
     20 C     c       0.000867      0.003978      0.002020      0.000000
     21 C     c       0.000868      0.004849      0.002206      0.000000
     22 C     c      -0.000079      0.001773      0.000049      0.000000
     23 C     c       0.001168      0.006482      0.003295      0.000000
     24 C     c       0.001212      0.005334      0.002645      0.000000
     25 C     c       0.001321      0.005870      0.003167      0.000000
     26 C     c       0.000542      0.005778      0.003875      0.000000
     27 C     c       0.001003      0.006898      0.003229      0.000000
     28 C     c       0.001515      0.006189      0.003703      0.000000
     29 C     c       0.001199      0.006308      0.003679      0.000000
     30 C     c       0.001166      0.006002      0.003106      0.000000
     31 C     c       0.001096      0.006196      0.002884      0.000000
     32 C     c       0.002710      0.006702      0.003246      0.000000
     33 C     c       0.000545      0.005892      0.002695      0.000000
     34 C     c       0.000992      0.005286      0.002839      0.000000
     35 C     c       0.001282      0.005027      0.003308      0.000000
     36 C     c       0.000995      0.005986      0.002930      0.000000
     37 C     c      -0.000043      0.001598      0.001161      0.000000
     38 C     c       0.001071      0.005783      0.003079      0.000000
     39 C     c       0.001248      0.004571      0.002404      0.000000
     40 C     c       0.001578      0.005858      0.002960      0.000000
     41 C     c       0.000971      0.006076      0.003277      0.000000
     42 C     c       0.001974      0.002933      0.001815      0.000000
     43 C     c       0.001579      0.005444      0.003115      0.000000
     44 C     c      -0.002532      0.006918      0.002001      0.000000
     45 C     c       0.000714      0.005864      0.002654      0.000000
     46 C     c       0.001237      0.005729      0.002781      0.000000
     47 C     c       0.001124      0.005636      0.003494      0.000000
     48 C     c       0.001354      0.005400      0.002768      0.000000
     49 C     c       0.001352      0.005033      0.002964      0.000000
     50 C     c       0.001009      0.005862      0.002623      0.000000
     51 C     c       0.001095      0.004356      0.002531      0.000000
     52 C     c       0.001065      0.006123      0.002976      0.000000
     53 C     c       0.007113      0.005576      0.003302      0.000000
     54 C     c       0.001135      0.006308      0.003305      0.000000
     55 C     c       0.001482      0.006064      0.003333      0.000000
     56 C     c       0.001103      0.006069      0.002988      0.000000
     57 C     c       0.000790      0.006194      0.003448      0.000000
     58 C     c       0.001796      0.005681      0.002840      0.000000
     59 C     c       0.000701      0.005183      0.002757      0.000000
     60 C     c      -0.000616      0.004486      0.001776      0.000000
     61 C     c       0.001217      0.006007      0.003397      0.000000
     62 C     c       0.000745      0.004595      0.002253      0.000000
     63 C     c       0.000661      0.006182      0.003812      0.000000
     64 C     c       0.001216      0.006414      0.003309      0.000000
--------------------------------------------------------------------------------
  Maximum abs         0.007113      0.008016      0.005483      0.000000
--------------------------------------------------------------------------------


  Time to end of optimisation =       1.2202 seconds


  Peak dynamic memory used =       1.98 MB 


  Timing analysis for GULP :

--------------------------------------------------------------------------------
  Task / Subroutine                                          Time (Seconds)
--------------------------------------------------------------------------------
  Calculation of Brenner energy and derivatives                   1.1971
--------------------------------------------------------------------------------
  Total CPU time                                                  1.2203
--------------------------------------------------------------------------------


  CIF file written as opti_1.0100.cif


  Job Finished at 23:37.22 10th August     2020                               

