********************************************************************************
*                       GENERAL UTILITY LATTICE PROGRAM                        *
*                                 Julian Gale                                  *
*                       Curtin Institute for Computation                       *
*                    School of Molecular and Life Sciences                     *
*                    Curtin University, Western Australia                      *
********************************************************************************
* Version = 5.2.0 * Last modified =  17th December 2019                        *
********************************************************************************
*  optimise     - perform optimisation run                                     *
*  conv         - constant volume calculation                                  *
*  isotropic    - only isotropic cell expansion to be allowed                  *
*  lbfgs        - use limited memory BFGS update                               *
********************************************************************************
* ASE calculation                                                              *
********************************************************************************


  Job Started  at 16:20.12 12th August     2020                               

  Number of CPUs =     1


  Total number of configurations input =      1

********************************************************************************
*  Input for Configuration =   1                                               *
********************************************************************************

  Formula = C64                                                         

  Number of irreducible atoms/shells =      64


  Total number atoms/shells =      64

  Dimensionality = 3               :  Bulk   



  Cartesian lattice vectors (Angstroms) :

        7.564306    0.000000    0.000000
        0.000000    7.564306    0.000000
        0.000000    0.000000    7.564306

  Cell parameters (Angstroms/Degrees):

  a =       7.5643    alpha =  90.0000
  b =       7.5643    beta  =  90.0000
  c =       7.5643    gamma =  90.0000

  Initial cell volume =         432.819947 Angs**3

  Temperature of configuration =   0.00     K 

  Pressure of configuration =         0.000 GPa 

  Fractional coordinates of asymmetric unit :

--------------------------------------------------------------------------------
   No.  Atomic       x           y          z         Charge      Occupancy
        Label      (Frac)      (Frac)     (Frac)        (e)         (Frac)  
--------------------------------------------------------------------------------
      1 C     c    0.082860    0.546420    0.420470     0.00000    1.000000    
      2 C     c    0.300470 *  0.098480 *  0.158050 *   0.00000    1.000000    
      3 C     c    0.135430 *  0.397320 *  0.321400 *   0.00000    1.000000    
      4 C     c    0.905490 *  0.925920 *  0.500530 *   0.00000    1.000000    
      5 C     c    0.496470 *  0.888330 *  0.033250 *   0.00000    1.000000    
      6 C     c    0.816780 *  0.441270 *  0.290230 *   0.00000    1.000000    
      7 C     c    0.945770 *  0.607820 *  0.761780 *   0.00000    1.000000    
      8 C     c    0.840320 *  0.519590 *  0.629820 *   0.00000    1.000000    
      9 C     c    0.152890 *  0.348160 *  0.688790 *   0.00000    1.000000    
     10 C     c    0.417360 *  0.733360 *  0.168120 *   0.00000    1.000000    
     11 C     c    0.912950 *  0.222370 *  0.789680 *   0.00000    1.000000    
     12 C     c    0.594660 *  0.873970 *  0.593910 *   0.00000    1.000000    
     13 C     c    0.450710 *  0.212820 *  0.666970 *   0.00000    1.000000    
     14 C     c    0.222920 *  0.959920 *  0.855440 *   0.00000    1.000000    
     15 C     c    0.544790 *  0.575680 *  0.447490 *   0.00000    1.000000    
     16 C     c    0.011880 *  0.923390 *  0.168010 *   0.00000    1.000000    
     17 C     c    0.170450 *  0.793090 *  0.921890 *   0.00000    1.000000    
     18 C     c    0.324040 *  0.692350 *  0.651930 *   0.00000    1.000000    
     19 C     c    0.762670 *  0.347470 *  0.713160 *   0.00000    1.000000    
     20 C     c    0.064920 *  0.226020 *  0.316700 *   0.00000    1.000000    
     21 C     c    0.939020 *  0.137230 *  0.452960 *   0.00000    1.000000    
     22 C     c    0.882990 *  0.573160 *  0.439880 *   0.00000    1.000000    
     23 C     c    0.483380 *  0.799280 *  0.721410 *   0.00000    1.000000    
     24 C     c    0.800220 *  0.235140 *  0.302270 *   0.00000    1.000000    
     25 C     c    0.720270 *  0.151940 *  0.111960 *   0.00000    1.000000    
     26 C     c    0.529470 *  0.570940 *  0.123160 *   0.00000    1.000000    
     27 C     c    0.623950 *  0.264260 *  0.582370 *   0.00000    1.000000    
     28 C     c    0.661500 *  0.958000 *  0.159510 *   0.00000    1.000000    
     29 C     c    0.510700 *  0.875200 *  0.296820 *   0.00000    1.000000    
     30 C     c    0.368170 *  0.034740 *  0.972170 *   0.00000    1.000000    
     31 C     c    0.838010 *  0.084970 *  0.940300 *   0.00000    1.000000    
     32 C     c    0.887020 *  0.741300 *  0.878490 *   0.00000    1.000000    
     33 C     c    0.329920 *  0.369220 *  0.625000 *   0.00000    1.000000    
     34 C     c    0.234910 *  0.665930 *  0.237200 *   0.00000    1.000000    
     35 C     c    0.097820 *  0.482080 *  0.828230 *   0.00000    1.000000    
     36 C     c    0.357300 *  0.059430 *  0.561620 *   0.00000    1.000000    
     37 C     c    0.205560 *  0.709380 *  0.458790 *   0.00000    1.000000    
     38 C     c    0.577830 *  0.283650 *  0.000200 *   0.00000    1.000000    
     39 C     c    0.096250 *  0.111340 *  0.154850 *   0.00000    1.000000    
     40 C     c    0.783300 *  0.916310 *  0.845700 *   0.00000    1.000000    
     41 C     c    0.406360 *  0.526900 *  0.561540 *   0.00000    1.000000    
     42 C     c    0.094690 *  0.865200 *  0.548260 *   0.00000    1.000000    
     43 C     c    0.072230 *  0.412820 *  0.017680 *   0.00000    1.000000    
     44 C     c    0.238240 *  0.455410 *  0.151960 *   0.00000    1.000000    
     45 C     c    0.203740 *  0.654420 *  0.807420 *   0.00000    1.000000    
     46 C     c    0.918830 *  0.504530 *  0.126220 *   0.00000    1.000000    
     47 C     c    0.828050 *  0.833420 *  0.193820 *   0.00000    1.000000    
     48 C     c    0.017560 *  0.212950 *  0.992570 *   0.00000    1.000000    
     49 C     c    0.812710 *  0.769570 *  0.389370 *   0.00000    1.000000    
     50 C     c    0.835940 *  0.673740 *  0.062610 *   0.00000    1.000000    
     51 C     c    0.185060 *  0.009430 *  0.659170 *   0.00000    1.000000    
     52 C     c    0.457630 *  0.216810 *  0.274090 *   0.00000    1.000000    
     53 C     c    0.431410 *  0.378370 *  0.134190 *   0.00000    1.000000    
     54 C     c    0.387750 *  0.028060 *  0.356610 *   0.00000    1.000000    
     55 C     c    0.620120 *  0.243470 *  0.401380 *   0.00000    1.000000    
     56 C     c    0.467290 *  0.174440 *  0.869580 *   0.00000    1.000000    
     57 C     c    0.671060 *  0.425450 *  0.885090 *   0.00000    1.000000    
     58 C     c    0.760010 *  0.942560 *  0.648250 *   0.00000    1.000000    
     59 C     c    0.130720 *  0.786950 *  0.105540 *   0.00000    1.000000    
     60 C     c    0.614630 *  0.488110 *  0.292770 *   0.00000    1.000000    
     61 C     c    0.609350 *  0.770250 *  0.432430 *   0.00000    1.000000    
     62 C     c    0.047380 *  0.170810 *  0.640760 *   0.00000    1.000000    
     63 C     c    0.654620 *  0.612400 *  0.969500 *   0.00000    1.000000    
     64 C     c    0.597000 *  0.795710 *  0.888070 *   0.00000    1.000000    
--------------------------------------------------------------------------------


  Constraints : 

--------------------------------------------------------------------------------
  Constraint no.      Unconstrained     Constrained    Coefficient    Offset
                         Variable         Variable
--------------------------------------------------------------------------------
           1              Strain 1        Strain 2       1.00000      0.0000
           2              Strain 1        Strain 3       1.00000      0.0000
--------------------------------------------------------------------------------


********************************************************************************
*  General input information                                                   *
********************************************************************************

  Species output for all configurations : 

--------------------------------------------------------------------------------
  Species    Type    Atomic    Atomic    Charge       Radii (Angs)     Library
                     Number     Mass       (e)     Cova   Ionic  VDW   Symbol
--------------------------------------------------------------------------------
    C        Core        6      12.01   0.000000   0.770  0.000  1.530          
--------------------------------------------------------------------------------


  Lattice summation method               =    Ewald          (3-D)
                                         =    Parry          (2-D)
                                         =    Saunders et al (1-D)
  Accuracy factor for lattice sums       =   12.000


  Analytic derivatives to be used

  Time limit = Infinity

  Maximum range for interatomic potentials =    100000.000000 Angstroms

  Brenner et al 2002 potential to be used with explicit splines for P


********************************************************************************
*  Output for configuration   1                                                *
********************************************************************************


  Components of energy : 

--------------------------------------------------------------------------------
  Interatomic potentials     =           0.00000000 eV    
  Brenner potentials         =        -424.95711400 eV    
  Monopole - monopole (real) =           0.00000000 eV    
  Monopole - monopole (recip)=           0.00000000 eV    
  Monopole - monopole (total)=           0.00000000 eV    
--------------------------------------------------------------------------------
  Total lattice energy       =        -424.95711400 eV    
--------------------------------------------------------------------------------
  Total lattice energy       =          -41001.8654 kJ/(mole unit cells)
--------------------------------------------------------------------------------


  Number of variables =      189

  Maximum number of calculations  =          2000
  Maximum Hessian update interval =            10
  Maximum step size               =   1.000000000
  Maximum parameter tolerance     =   0.000010000
  Maximum function  tolerance     =   0.000010000
  Maximum gradient  tolerance     =   0.001000000
  Maximum gradient  component     =   0.010000000

  Maximum LM gradient tolerance   =   0.900000000
  Symmetry not applied to optimisation

  Limited Memory BFGS to be used of order   10

  BFGS hessian update to be used

  Lower half triangular hessian to be used

  Start of bulk optimisation :

  Cycle:      0 Energy:      -424.957114  Gnorm:      0.241354  CPU:    0.009
  Cycle:      1 Energy:      -424.992195  Gnorm:      0.174693  CPU:    0.036
  Cycle:      2 Energy:      -425.040859  Gnorm:      0.059262  CPU:    0.042
  Cycle:      3 Energy:      -425.047813  Gnorm:      0.045508  CPU:    0.046
  Cycle:      4 Energy:      -425.058873  Gnorm:      0.058525  CPU:    0.050
  Cycle:      5 Energy:      -425.065432  Gnorm:      0.035858  CPU:    0.054
  Cycle:      6 Energy:      -425.069029  Gnorm:      0.031085  CPU:    0.057
  Cycle:      7 Energy:      -425.073081  Gnorm:      0.038044  CPU:    0.065
  Cycle:      8 Energy:      -425.075708  Gnorm:      0.022675  CPU:    0.082
  Cycle:      9 Energy:      -425.077516  Gnorm:      0.014764  CPU:    0.087
  Cycle:     10 Energy:      -425.079506  Gnorm:      0.015569  CPU:    0.092
  Cycle:     11 Energy:      -425.080014  Gnorm:      0.031491  CPU:    0.096
  Cycle:     12 Energy:      -425.081170  Gnorm:      0.011743  CPU:    0.099
  Cycle:     13 Energy:      -425.081663  Gnorm:      0.009420  CPU:    0.103
  Cycle:     14 Energy:      -425.082029  Gnorm:      0.008479  CPU:    0.115
  Cycle:     15 Energy:      -425.082551  Gnorm:      0.009029  CPU:    0.128
  Cycle:     16 Energy:      -425.082783  Gnorm:      0.008336  CPU:    0.135
  Cycle:     17 Energy:      -425.082964  Gnorm:      0.005487  CPU:    0.139
  Cycle:     18 Energy:      -425.083141  Gnorm:      0.005496  CPU:    0.143
  Cycle:     19 Energy:      -425.083236  Gnorm:      0.010580  CPU:    0.156
  Cycle:     20 Energy:      -425.083378  Gnorm:      0.004471  CPU:    0.168
  Cycle:     21 Energy:      -425.083457  Gnorm:      0.003457  CPU:    0.173
  Cycle:     22 Energy:      -425.083521  Gnorm:      0.004101  CPU:    0.178
  Cycle:     23 Energy:      -425.083655  Gnorm:      0.004912  CPU:    0.182
  Cycle:     24 Energy:      -425.083724  Gnorm:      0.005700  CPU:    0.187
  Cycle:     25 Energy:      -425.083805  Gnorm:      0.003402  CPU:    0.207
  Cycle:     26 Energy:      -425.083888  Gnorm:      0.003474  CPU:    0.213
  Cycle:     27 Energy:      -425.083956  Gnorm:      0.004631  CPU:    0.218
  Cycle:     28 Energy:      -425.084037  Gnorm:      0.004335  CPU:    0.221
  Cycle:     29 Energy:      -425.084108  Gnorm:      0.003995  CPU:    0.225
  Cycle:     30 Energy:      -425.084172  Gnorm:      0.003929  CPU:    0.228
  Cycle:     31 Energy:      -425.084219  Gnorm:      0.003415  CPU:    0.241
  Cycle:     32 Energy:      -425.084307  Gnorm:      0.003769  CPU:    0.253
  Cycle:     33 Energy:      -425.084359  Gnorm:      0.004930  CPU:    0.260
  Cycle:     34 Energy:      -425.084423  Gnorm:      0.003477  CPU:    0.264
  Cycle:     35 Energy:      -425.084506  Gnorm:      0.003379  CPU:    0.268
  Cycle:     36 Energy:      -425.084585  Gnorm:      0.004625  CPU:    0.281
  Cycle:     37 Energy:      -425.084665  Gnorm:      0.003965  CPU:    0.293
  Cycle:     38 Energy:      -425.084736  Gnorm:      0.003180  CPU:    0.299
  Cycle:     39 Energy:      -425.084818  Gnorm:      0.005039  CPU:    0.303
  Cycle:     40 Energy:      -425.084881  Gnorm:      0.003462  CPU:    0.307
  Cycle:     41 Energy:      -425.084937  Gnorm:      0.003519  CPU:    0.310
  Cycle:     42 Energy:      -425.085011  Gnorm:      0.004296  CPU:    0.313
  Cycle:     43 Energy:      -425.085059  Gnorm:      0.006662  CPU:    0.333
  Cycle:     44 Energy:      -425.085122  Gnorm:      0.003551  CPU:    0.340
  Cycle:     45 Energy:      -425.085190  Gnorm:      0.002957  CPU:    0.345
  Cycle:     46 Energy:      -425.085233  Gnorm:      0.003130  CPU:    0.349
  Cycle:     47 Energy:      -425.085250  Gnorm:      0.009591  CPU:    0.353
  Cycle:     48 Energy:      -425.085334  Gnorm:      0.002522  CPU:    0.356
  Cycle:     49 Energy:      -425.085349  Gnorm:      0.001689  CPU:    0.360
  Cycle:     50 Energy:      -425.085368  Gnorm:      0.001905  CPU:    0.380
  Cycle:     51 Energy:      -425.085393  Gnorm:      0.002173  CPU:    0.386
  Cycle:     52 Energy:      -425.085406  Gnorm:      0.005125  CPU:    0.390
  Cycle:     53 Energy:      -425.085439  Gnorm:      0.001583  CPU:    0.394
  Cycle:     54 Energy:      -425.085448  Gnorm:      0.001241  CPU:    0.398
  Cycle:     55 Energy:      -425.085463  Gnorm:      0.001564  CPU:    0.411
  Cycle:     56 Energy:      -425.085477  Gnorm:      0.001798  CPU:    0.423
  Cycle:     57 Energy:      -425.085489  Gnorm:      0.001690  CPU:    0.429
  Cycle:     58 Energy:      -425.085498  Gnorm:      0.001258  CPU:    0.433
  Cycle:     59 Energy:      -425.085508  Gnorm:      0.001357  CPU:    0.437
  Cycle:     60 Energy:      -425.085515  Gnorm:      0.001598  CPU:    0.440
  Cycle:     61 Energy:      -425.085524  Gnorm:      0.001137  CPU:    0.461
  Cycle:     62 Energy:      -425.085533  Gnorm:      0.001241  CPU:    0.467
  Cycle:     63 Energy:      -425.085539  Gnorm:      0.001721  CPU:    0.472
  Cycle:     64 Energy:      -425.085546  Gnorm:      0.000990  CPU:    0.476
  Cycle:     65 Energy:      -425.085551  Gnorm:      0.000931  CPU:    0.479
  Cycle:     66 Energy:      -425.085558  Gnorm:      0.001052  CPU:    0.482
  Cycle:     67 Energy:      -425.085561  Gnorm:      0.002723  CPU:    0.493
  Cycle:     68 Energy:      -425.085570  Gnorm:      0.000908  CPU:    0.508
  Cycle:     69 Energy:      -425.085573  Gnorm:      0.000839  CPU:    0.514
  Cycle:     70 Energy:      -425.085580  Gnorm:      0.001068  CPU:    0.518
  Cycle:     71 Energy:      -425.085591  Gnorm:      0.001397  CPU:    0.538
  Cycle:     72 Energy:      -425.085598  Gnorm:      0.002343  CPU:    0.549
  Cycle:     73 Energy:      -425.085611  Gnorm:      0.001328  CPU:    0.553
  Cycle:     74 Energy:      -425.085623  Gnorm:      0.001203  CPU:    0.557
  Cycle:     75 Energy:      -425.085637  Gnorm:      0.002219  CPU:    0.560
  Cycle:     76 Energy:      -425.085652  Gnorm:      0.001823  CPU:    0.563
  Cycle:     77 Energy:      -425.085667  Gnorm:      0.001540  CPU:    0.583
  Cycle:     78 Energy:      -425.085686  Gnorm:      0.003349  CPU:    0.590
  Cycle:     79 Energy:      -425.085706  Gnorm:      0.001888  CPU:    0.594
  Cycle:     80 Energy:      -425.085720  Gnorm:      0.001615  CPU:    0.598
  Cycle:     81 Energy:      -425.085747  Gnorm:      0.001751  CPU:    0.602
  Cycle:     82 Energy:      -425.085754  Gnorm:      0.003461  CPU:    0.605
  Cycle:     83 Energy:      -425.085770  Gnorm:      0.001367  CPU:    0.608
  Cycle:     84 Energy:      -425.085778  Gnorm:      0.000922  CPU:    0.626
  Cycle:     85 Energy:      -425.085785  Gnorm:      0.001129  CPU:    0.634
  Cycle:     86 Energy:      -425.085788  Gnorm:      0.002537  CPU:    0.639
  Cycle:     87 Energy:      -425.085795  Gnorm:      0.000876  CPU:    0.643
  Cycle:     88 Energy:      -425.085798  Gnorm:      0.000608  CPU:    0.647
  Cycle:     89 Energy:      -425.085801  Gnorm:      0.000642  CPU:    0.650
  Cycle:     90 Energy:      -425.085803  Gnorm:      0.001402  CPU:    0.653
  Cycle:     91 Energy:      -425.085805  Gnorm:      0.000489  CPU:    0.674
  Cycle:     92 Energy:      -425.085806  Gnorm:      0.000373  CPU:    0.680
  Cycle:     93 Energy:      -425.085807  Gnorm:      0.000438  CPU:    0.685
  Cycle:     94 Energy:      -425.085808  Gnorm:      0.000854  CPU:    0.689
  Cycle:     95 Energy:      -425.085809  Gnorm:      0.000370  CPU:    0.692
  Cycle:     96 Energy:      -425.085810  Gnorm:      0.000276  CPU:    0.696
  Cycle:     97 Energy:      -425.085810  Gnorm:      0.000285  CPU:    0.711
  Cycle:     98 Energy:      -425.085811  Gnorm:      0.000455  CPU:    0.722
  Cycle:     99 Energy:      -425.085811  Gnorm:      0.000290  CPU:    0.727


  **** Optimisation achieved ****


  Final energy =    -425.08581134 eV
  Final Gnorm  =       0.00019522

  Components of energy : 

--------------------------------------------------------------------------------
  Interatomic potentials     =           0.00000000 eV    
  Brenner potentials         =        -425.08581134 eV    
  Monopole - monopole (real) =           0.00000000 eV    
  Monopole - monopole (recip)=           0.00000000 eV    
  Monopole - monopole (total)=           0.00000000 eV    
--------------------------------------------------------------------------------
  Total lattice energy       =        -425.08581134 eV    
--------------------------------------------------------------------------------
  Total lattice energy       =          -41014.2828 kJ/(mole unit cells)
--------------------------------------------------------------------------------

  Final fractional coordinates of atoms :

--------------------------------------------------------------------------------
   No.  Atomic        x           y          z          Radius
        Label       (Frac)      (Frac)     (Frac)       (Angs) 
--------------------------------------------------------------------------------
     1  C     c     0.082860    0.546420    0.420470    0.000000
     2  C     c     0.303160    0.097941    0.160456    0.000000
     3  C     c     0.133855    0.397874    0.321028    0.000000
     4  C     c     0.907843    0.926170    0.503081    0.000000
     5  C     c     0.499707    0.887667    0.036083    0.000000
     6  C     c     0.816658    0.440937    0.293450    0.000000
     7  C     c     0.946781    0.606146    0.764997    0.000000
     8  C     c     0.842887    0.518149    0.632622    0.000000
     9  C     c     0.155912    0.348211    0.692509    0.000000
    10  C     c     0.420172    0.733466    0.170448    0.000000
    11  C     c     0.914692    0.220940    0.792168    0.000000
    12  C     c     0.598317    0.869591    0.596839    0.000000
    13  C     c     0.452477    0.213465    0.669089    0.000000
    14  C     c     0.227415    0.958999    0.856703    0.000000
    15  C     c     0.545277    0.576099    0.448841    0.000000
    16  C     c     0.015069    0.922028    0.168905    0.000000
    17  C     c     0.173845    0.793217    0.922798    0.000000
    18  C     c     0.323535    0.692028    0.651397    0.000000
    19  C     c     0.764341    0.346650    0.715799    0.000000
    20  C     c     0.064728    0.226708    0.316318    0.000000
    21  C     c     0.941445    0.137954    0.454270    0.000000
    22  C     c     0.884137    0.572500    0.442831    0.000000
    23  C     c     0.485943    0.795850    0.723277    0.000000
    24  C     c     0.801805    0.235080    0.306329    0.000000
    25  C     c     0.722728    0.150929    0.114326    0.000000
    26  C     c     0.531552    0.571331    0.125880    0.000000
    27  C     c     0.625216    0.264099    0.584496    0.000000
    28  C     c     0.664846    0.956919    0.161378    0.000000
    29  C     c     0.513716    0.875333    0.297836    0.000000
    30  C     c     0.371420    0.033905    0.974475    0.000000
    31  C     c     0.840218    0.083422    0.941912    0.000000
    32  C     c     0.886189    0.738228    0.881185    0.000000
    33  C     c     0.332315    0.369896    0.628722    0.000000
    34  C     c     0.237786    0.666336    0.238825    0.000000
    35  C     c     0.099408    0.482075    0.831020    0.000000
    36  C     c     0.359207    0.060939    0.562604    0.000000
    37  C     c     0.206497    0.708355    0.458840    0.000000
    38  C     c     0.579564    0.283281    0.002496    0.000000
    39  C     c     0.098508    0.110754    0.156356    0.000000
    40  C     c     0.784888    0.914079    0.848109    0.000000
    41  C     c     0.407821    0.526773    0.563394    0.000000
    42  C     c     0.097550    0.865867    0.549179    0.000000
    43  C     c     0.073109    0.412540    0.020590    0.000000
    44  C     c     0.240684    0.456887    0.155087    0.000000
    45  C     c     0.202726    0.655478    0.807174    0.000000
    46  C     c     0.919476    0.503513    0.129751    0.000000
    47  C     c     0.831278    0.832365    0.195797    0.000000
    48  C     c     0.017828    0.212255    0.994037    0.000000
    49  C     c     0.814475    0.769401    0.391536    0.000000
    50  C     c     0.837413    0.672217    0.065675    0.000000
    51  C     c     0.187959    0.009547    0.660429    0.000000
    52  C     c     0.459377    0.216508    0.274645    0.000000
    53  C     c     0.434169    0.379337    0.137493    0.000000
    54  C     c     0.391068    0.028227    0.357204    0.000000
    55  C     c     0.621505    0.242955    0.404172    0.000000
    56  C     c     0.469513    0.174096    0.872134    0.000000
    57  C     c     0.672847    0.424789    0.887856    0.000000
    58  C     c     0.762662    0.937998    0.650910    0.000000
    59  C     c     0.134488    0.787078    0.106143    0.000000
    60  C     c     0.615667    0.489088    0.294950    0.000000
    61  C     c     0.610943    0.770143    0.433820    0.000000
    62  C     c     0.049868    0.171356    0.643665    0.000000
    63  C     c     0.656365    0.611448    0.972604    0.000000
    64  C     c     0.599048    0.794428    0.890675    0.000000
--------------------------------------------------------------------------------

  Final internal derivatives :

--------------------------------------------------------------------------------
   No.  Atomic          a             b             c           Radius
        Label          (eV)          (eV)          (eV)        (eV/Angs)
--------------------------------------------------------------------------------
      1 C     c       0.000000      0.000000      0.000000      0.000000
      2 C     c       0.002356      0.002942     -0.002071      0.000000
      3 C     c      -0.000022     -0.001197      0.002979      0.000000
      4 C     c       0.003109      0.001006      0.002929      0.000000
      5 C     c       0.001240     -0.000126     -0.002414      0.000000
      6 C     c       0.000105     -0.002286      0.001645      0.000000
      7 C     c       0.003514      0.000645      0.001490      0.000000
      8 C     c       0.001600     -0.000690     -0.001457      0.000000
      9 C     c      -0.000176     -0.001256     -0.000480      0.000000
     10 C     c       0.004015      0.001525     -0.002025      0.000000
     11 C     c      -0.000355     -0.001788     -0.000586      0.000000
     12 C     c       0.000671      0.001722     -0.001043      0.000000
     13 C     c       0.007191     -0.001931     -0.005544      0.000000
     14 C     c      -0.001735     -0.002068     -0.002573      0.000000
     15 C     c       0.001508      0.000278      0.000837      0.000000
     16 C     c      -0.002672     -0.004201     -0.004112      0.000000
     17 C     c       0.005452     -0.003384      0.000826      0.000000
     18 C     c      -0.000440      0.002063     -0.002343      0.000000
     19 C     c       0.002304     -0.000771     -0.001793      0.000000
     20 C     c       0.002710     -0.001998      0.005468      0.000000
     21 C     c       0.000786      0.007147      0.001878      0.000000
     22 C     c       0.000431     -0.001873     -0.001273      0.000000
     23 C     c      -0.000450     -0.000389     -0.002499      0.000000
     24 C     c       0.000678      0.004448      0.000994      0.000000
     25 C     c       0.005217     -0.004171      0.003030      0.000000
     26 C     c       0.000629     -0.000167      0.000316      0.000000
     27 C     c       0.006045     -0.001796      0.000588      0.000000
     28 C     c      -0.000920     -0.003591     -0.001387      0.000000
     29 C     c       0.002074     -0.001631     -0.002831      0.000000
     30 C     c       0.004989     -0.003981     -0.001039      0.000000
     31 C     c       0.003418     -0.001878     -0.001932      0.000000
     32 C     c      -0.001682      0.001475     -0.004269      0.000000
     33 C     c       0.002748     -0.003840      0.002146      0.000000
     34 C     c       0.000639     -0.001551     -0.003205      0.000000
     35 C     c       0.002948      0.002437      0.000145      0.000000
     36 C     c       0.005168     -0.003782      0.005288      0.000000
     37 C     c       0.002094     -0.000132     -0.005112      0.000000
     38 C     c      -0.001424      0.003067     -0.001424      0.000000
     39 C     c       0.003929      0.003321     -0.000111      0.000000
     40 C     c       0.002448     -0.001334      0.000901      0.000000
     41 C     c      -0.001283     -0.002034     -0.001177      0.000000
     42 C     c       0.007417      0.001036     -0.005056      0.000000
     43 C     c       0.000739      0.000449     -0.001202      0.000000
     44 C     c       0.003196     -0.004351      0.003522      0.000000
     45 C     c      -0.005164     -0.000107     -0.004368      0.000000
     46 C     c      -0.000342      0.002006     -0.000110      0.000000
     47 C     c      -0.000044     -0.002812      0.002338      0.000000
     48 C     c       0.000073      0.002524     -0.000428      0.000000
     49 C     c      -0.000705      0.003591     -0.001291      0.000000
     50 C     c       0.003108      0.002723     -0.003200      0.000000
     51 C     c       0.001885      0.001588     -0.005051      0.000000
     52 C     c       0.004185     -0.000310     -0.006020      0.000000
     53 C     c       0.002309      0.000864      0.000040      0.000000
     54 C     c      -0.002379     -0.004791     -0.003621      0.000000
     55 C     c      -0.002217      0.002540      0.000683      0.000000
     56 C     c       0.004770     -0.000350      0.001670      0.000000
     57 C     c      -0.000241     -0.004608     -0.001457      0.000000
     58 C     c       0.001838     -0.001647      0.001932      0.000000
     59 C     c       0.001654     -0.000758     -0.000898      0.000000
     60 C     c       0.001704      0.002153      0.000193      0.000000
     61 C     c      -0.000140      0.001951     -0.001445      0.000000
     62 C     c      -0.000613     -0.002366     -0.002723      0.000000
     63 C     c      -0.000925     -0.002878     -0.002404      0.000000
     64 C     c       0.001670     -0.000719     -0.000548      0.000000
--------------------------------------------------------------------------------
  Maximum abs         0.007417      0.007147      0.006020      0.000000
--------------------------------------------------------------------------------


  Time to end of optimisation =       0.7312 seconds


  Peak dynamic memory used =       2.01 MB 


  Timing analysis for GULP :

--------------------------------------------------------------------------------
  Task / Subroutine                                          Time (Seconds)
--------------------------------------------------------------------------------
  Calculation of Brenner energy and derivatives                   0.7144
--------------------------------------------------------------------------------
  Total CPU time                                                  0.7313
--------------------------------------------------------------------------------


  CIF file written as opti_1.0100.cif


  Job Finished at 16:20.13 12th August     2020                               

