********************************************************************************
*                       GENERAL UTILITY LATTICE PROGRAM                        *
*                                 Julian Gale                                  *
*                       Curtin Institute for Computation                       *
*                    School of Molecular and Life Sciences                     *
*                    Curtin University, Western Australia                      *
********************************************************************************
* Version = 5.2.0 * Last modified =  17th December 2019                        *
********************************************************************************
*  single       - perform a single point run                                   *
*  property     - calculate properties for final geometry                      *
*  phonon       - calculate phonons for final geometry                         *
********************************************************************************
* ASE calculation                                                              *
********************************************************************************


  Job Started  at 09:35.37 31st July       2020                               

  Number of CPUs =     1


  Total number of configurations input =      1

********************************************************************************
*  Input for Configuration =   1                                               *
********************************************************************************

  Formula = C8                                                          

  Number of irreducible atoms/shells =       8


  Total number atoms/shells =       8

  Dimensionality = 3               :  Bulk   



  Cartesian lattice vectors (Angstroms) :

        3.561100    0.000000    0.000000
        0.000000    3.561100    0.000000
        0.000000    0.000000    3.561100

  Cell parameters (Angstroms/Degrees):

  a =       3.5611    alpha =  90.0000
  b =       3.5611    beta  =  90.0000
  c =       3.5611    gamma =  90.0000

  Initial cell volume =          45.159852 Angs**3

  Shrinking factors =      8     8     8

  Temperature of configuration =   10.0     K 

  Pressure of configuration =         0.000 GPa 

  Fractional coordinates of asymmetric unit :

--------------------------------------------------------------------------------
   No.  Atomic       x           y          z         Charge      Occupancy
        Label      (Frac)      (Frac)     (Frac)        (e)         (Frac)  
--------------------------------------------------------------------------------
      1 C     c    0.000000    0.000000    0.000000     0.00000    1.000000    
      2 C     c    0.000000    0.500000    0.500000     0.00000    1.000000    
      3 C     c    0.500000    0.500000    0.000000     0.00000    1.000000    
      4 C     c    0.500000    0.000000    0.500000     0.00000    1.000000    
      5 C     c    0.750000    0.250000    0.750000     0.00000    1.000000    
      6 C     c    0.250000    0.250000    0.250000     0.00000    1.000000    
      7 C     c    0.250000    0.750000    0.750000     0.00000    1.000000    
      8 C     c    0.750000    0.750000    0.250000     0.00000    1.000000    
--------------------------------------------------------------------------------


  Brillouin zone sampling points :

--------------------------------------------------------------------------------
  Point number          x          y          z            Weight
--------------------------------------------------------------------------------
        1           0.062500   0.062500   0.062500     0.00390625
        2           0.062500   0.062500   0.187500     0.00390625
        3           0.062500   0.062500   0.312500     0.00390625
        4           0.062500   0.062500   0.437500     0.00390625
        5           0.062500   0.062500   0.562500     0.00390625
        6           0.062500   0.062500   0.687500     0.00390625
        7           0.062500   0.062500   0.812500     0.00390625
        8           0.062500   0.062500   0.937500     0.00390625
        9           0.062500   0.187500   0.062500     0.00390625
       10           0.062500   0.187500   0.187500     0.00390625
       11           0.062500   0.187500   0.312500     0.00390625
       12           0.062500   0.187500   0.437500     0.00390625
       13           0.062500   0.187500   0.562500     0.00390625
       14           0.062500   0.187500   0.687500     0.00390625
       15           0.062500   0.187500   0.812500     0.00390625
       16           0.062500   0.187500   0.937500     0.00390625
       17           0.062500   0.312500   0.062500     0.00390625
       18           0.062500   0.312500   0.187500     0.00390625
       19           0.062500   0.312500   0.312500     0.00390625
       20           0.062500   0.312500   0.437500     0.00390625
       21           0.062500   0.312500   0.562500     0.00390625
       22           0.062500   0.312500   0.687500     0.00390625
       23           0.062500   0.312500   0.812500     0.00390625
       24           0.062500   0.312500   0.937500     0.00390625
       25           0.062500   0.437500   0.062500     0.00390625
       26           0.062500   0.437500   0.187500     0.00390625
       27           0.062500   0.437500   0.312500     0.00390625
       28           0.062500   0.437500   0.437500     0.00390625
       29           0.062500   0.437500   0.562500     0.00390625
       30           0.062500   0.437500   0.687500     0.00390625
       31           0.062500   0.437500   0.812500     0.00390625
       32           0.062500   0.437500   0.937500     0.00390625
       33           0.062500   0.562500   0.062500     0.00390625
       34           0.062500   0.562500   0.187500     0.00390625
       35           0.062500   0.562500   0.312500     0.00390625
       36           0.062500   0.562500   0.437500     0.00390625
       37           0.062500   0.562500   0.562500     0.00390625
       38           0.062500   0.562500   0.687500     0.00390625
       39           0.062500   0.562500   0.812500     0.00390625
       40           0.062500   0.562500   0.937500     0.00390625
       41           0.062500   0.687500   0.062500     0.00390625
       42           0.062500   0.687500   0.187500     0.00390625
       43           0.062500   0.687500   0.312500     0.00390625
       44           0.062500   0.687500   0.437500     0.00390625
       45           0.062500   0.687500   0.562500     0.00390625
       46           0.062500   0.687500   0.687500     0.00390625
       47           0.062500   0.687500   0.812500     0.00390625
       48           0.062500   0.687500   0.937500     0.00390625
       49           0.062500   0.812500   0.062500     0.00390625
       50           0.062500   0.812500   0.187500     0.00390625
       51           0.062500   0.812500   0.312500     0.00390625
       52           0.062500   0.812500   0.437500     0.00390625
       53           0.062500   0.812500   0.562500     0.00390625
       54           0.062500   0.812500   0.687500     0.00390625
       55           0.062500   0.812500   0.812500     0.00390625
       56           0.062500   0.812500   0.937500     0.00390625
       57           0.062500   0.937500   0.062500     0.00390625
       58           0.062500   0.937500   0.187500     0.00390625
       59           0.062500   0.937500   0.312500     0.00390625
       60           0.062500   0.937500   0.437500     0.00390625
       61           0.062500   0.937500   0.562500     0.00390625
       62           0.062500   0.937500   0.687500     0.00390625
       63           0.062500   0.937500   0.812500     0.00390625
       64           0.062500   0.937500   0.937500     0.00390625
       65           0.187500   0.062500   0.062500     0.00390625
       66           0.187500   0.062500   0.187500     0.00390625
       67           0.187500   0.062500   0.312500     0.00390625
       68           0.187500   0.062500   0.437500     0.00390625
       69           0.187500   0.062500   0.562500     0.00390625
       70           0.187500   0.062500   0.687500     0.00390625
       71           0.187500   0.062500   0.812500     0.00390625
       72           0.187500   0.062500   0.937500     0.00390625
       73           0.187500   0.187500   0.062500     0.00390625
       74           0.187500   0.187500   0.187500     0.00390625
       75           0.187500   0.187500   0.312500     0.00390625
       76           0.187500   0.187500   0.437500     0.00390625
       77           0.187500   0.187500   0.562500     0.00390625
       78           0.187500   0.187500   0.687500     0.00390625
       79           0.187500   0.187500   0.812500     0.00390625
       80           0.187500   0.187500   0.937500     0.00390625
       81           0.187500   0.312500   0.062500     0.00390625
       82           0.187500   0.312500   0.187500     0.00390625
       83           0.187500   0.312500   0.312500     0.00390625
       84           0.187500   0.312500   0.437500     0.00390625
       85           0.187500   0.312500   0.562500     0.00390625
       86           0.187500   0.312500   0.687500     0.00390625
       87           0.187500   0.312500   0.812500     0.00390625
       88           0.187500   0.312500   0.937500     0.00390625
       89           0.187500   0.437500   0.062500     0.00390625
       90           0.187500   0.437500   0.187500     0.00390625
       91           0.187500   0.437500   0.312500     0.00390625
       92           0.187500   0.437500   0.437500     0.00390625
       93           0.187500   0.437500   0.562500     0.00390625
       94           0.187500   0.437500   0.687500     0.00390625
       95           0.187500   0.437500   0.812500     0.00390625
       96           0.187500   0.437500   0.937500     0.00390625
       97           0.187500   0.562500   0.062500     0.00390625
       98           0.187500   0.562500   0.187500     0.00390625
       99           0.187500   0.562500   0.312500     0.00390625
      100           0.187500   0.562500   0.437500     0.00390625
      101           0.187500   0.562500   0.562500     0.00390625
      102           0.187500   0.562500   0.687500     0.00390625
      103           0.187500   0.562500   0.812500     0.00390625
      104           0.187500   0.562500   0.937500     0.00390625
      105           0.187500   0.687500   0.062500     0.00390625
      106           0.187500   0.687500   0.187500     0.00390625
      107           0.187500   0.687500   0.312500     0.00390625
      108           0.187500   0.687500   0.437500     0.00390625
      109           0.187500   0.687500   0.562500     0.00390625
      110           0.187500   0.687500   0.687500     0.00390625
      111           0.187500   0.687500   0.812500     0.00390625
      112           0.187500   0.687500   0.937500     0.00390625
      113           0.187500   0.812500   0.062500     0.00390625
      114           0.187500   0.812500   0.187500     0.00390625
      115           0.187500   0.812500   0.312500     0.00390625
      116           0.187500   0.812500   0.437500     0.00390625
      117           0.187500   0.812500   0.562500     0.00390625
      118           0.187500   0.812500   0.687500     0.00390625
      119           0.187500   0.812500   0.812500     0.00390625
      120           0.187500   0.812500   0.937500     0.00390625
      121           0.187500   0.937500   0.062500     0.00390625
      122           0.187500   0.937500   0.187500     0.00390625
      123           0.187500   0.937500   0.312500     0.00390625
      124           0.187500   0.937500   0.437500     0.00390625
      125           0.187500   0.937500   0.562500     0.00390625
      126           0.187500   0.937500   0.687500     0.00390625
      127           0.187500   0.937500   0.812500     0.00390625
      128           0.187500   0.937500   0.937500     0.00390625
      129           0.312500   0.062500   0.062500     0.00390625
      130           0.312500   0.062500   0.187500     0.00390625
      131           0.312500   0.062500   0.312500     0.00390625
      132           0.312500   0.062500   0.437500     0.00390625
      133           0.312500   0.062500   0.562500     0.00390625
      134           0.312500   0.062500   0.687500     0.00390625
      135           0.312500   0.062500   0.812500     0.00390625
      136           0.312500   0.062500   0.937500     0.00390625
      137           0.312500   0.187500   0.062500     0.00390625
      138           0.312500   0.187500   0.187500     0.00390625
      139           0.312500   0.187500   0.312500     0.00390625
      140           0.312500   0.187500   0.437500     0.00390625
      141           0.312500   0.187500   0.562500     0.00390625
      142           0.312500   0.187500   0.687500     0.00390625
      143           0.312500   0.187500   0.812500     0.00390625
      144           0.312500   0.187500   0.937500     0.00390625
      145           0.312500   0.312500   0.062500     0.00390625
      146           0.312500   0.312500   0.187500     0.00390625
      147           0.312500   0.312500   0.312500     0.00390625
      148           0.312500   0.312500   0.437500     0.00390625
      149           0.312500   0.312500   0.562500     0.00390625
      150           0.312500   0.312500   0.687500     0.00390625
      151           0.312500   0.312500   0.812500     0.00390625
      152           0.312500   0.312500   0.937500     0.00390625
      153           0.312500   0.437500   0.062500     0.00390625
      154           0.312500   0.437500   0.187500     0.00390625
      155           0.312500   0.437500   0.312500     0.00390625
      156           0.312500   0.437500   0.437500     0.00390625
      157           0.312500   0.437500   0.562500     0.00390625
      158           0.312500   0.437500   0.687500     0.00390625
      159           0.312500   0.437500   0.812500     0.00390625
      160           0.312500   0.437500   0.937500     0.00390625
      161           0.312500   0.562500   0.062500     0.00390625
      162           0.312500   0.562500   0.187500     0.00390625
      163           0.312500   0.562500   0.312500     0.00390625
      164           0.312500   0.562500   0.437500     0.00390625
      165           0.312500   0.562500   0.562500     0.00390625
      166           0.312500   0.562500   0.687500     0.00390625
      167           0.312500   0.562500   0.812500     0.00390625
      168           0.312500   0.562500   0.937500     0.00390625
      169           0.312500   0.687500   0.062500     0.00390625
      170           0.312500   0.687500   0.187500     0.00390625
      171           0.312500   0.687500   0.312500     0.00390625
      172           0.312500   0.687500   0.437500     0.00390625
      173           0.312500   0.687500   0.562500     0.00390625
      174           0.312500   0.687500   0.687500     0.00390625
      175           0.312500   0.687500   0.812500     0.00390625
      176           0.312500   0.687500   0.937500     0.00390625
      177           0.312500   0.812500   0.062500     0.00390625
      178           0.312500   0.812500   0.187500     0.00390625
      179           0.312500   0.812500   0.312500     0.00390625
      180           0.312500   0.812500   0.437500     0.00390625
      181           0.312500   0.812500   0.562500     0.00390625
      182           0.312500   0.812500   0.687500     0.00390625
      183           0.312500   0.812500   0.812500     0.00390625
      184           0.312500   0.812500   0.937500     0.00390625
      185           0.312500   0.937500   0.062500     0.00390625
      186           0.312500   0.937500   0.187500     0.00390625
      187           0.312500   0.937500   0.312500     0.00390625
      188           0.312500   0.937500   0.437500     0.00390625
      189           0.312500   0.937500   0.562500     0.00390625
      190           0.312500   0.937500   0.687500     0.00390625
      191           0.312500   0.937500   0.812500     0.00390625
      192           0.312500   0.937500   0.937500     0.00390625
      193           0.437500   0.062500   0.062500     0.00390625
      194           0.437500   0.062500   0.187500     0.00390625
      195           0.437500   0.062500   0.312500     0.00390625
      196           0.437500   0.062500   0.437500     0.00390625
      197           0.437500   0.062500   0.562500     0.00390625
      198           0.437500   0.062500   0.687500     0.00390625
      199           0.437500   0.062500   0.812500     0.00390625
      200           0.437500   0.062500   0.937500     0.00390625
      201           0.437500   0.187500   0.062500     0.00390625
      202           0.437500   0.187500   0.187500     0.00390625
      203           0.437500   0.187500   0.312500     0.00390625
      204           0.437500   0.187500   0.437500     0.00390625
      205           0.437500   0.187500   0.562500     0.00390625
      206           0.437500   0.187500   0.687500     0.00390625
      207           0.437500   0.187500   0.812500     0.00390625
      208           0.437500   0.187500   0.937500     0.00390625
      209           0.437500   0.312500   0.062500     0.00390625
      210           0.437500   0.312500   0.187500     0.00390625
      211           0.437500   0.312500   0.312500     0.00390625
      212           0.437500   0.312500   0.437500     0.00390625
      213           0.437500   0.312500   0.562500     0.00390625
      214           0.437500   0.312500   0.687500     0.00390625
      215           0.437500   0.312500   0.812500     0.00390625
      216           0.437500   0.312500   0.937500     0.00390625
      217           0.437500   0.437500   0.062500     0.00390625
      218           0.437500   0.437500   0.187500     0.00390625
      219           0.437500   0.437500   0.312500     0.00390625
      220           0.437500   0.437500   0.437500     0.00390625
      221           0.437500   0.437500   0.562500     0.00390625
      222           0.437500   0.437500   0.687500     0.00390625
      223           0.437500   0.437500   0.812500     0.00390625
      224           0.437500   0.437500   0.937500     0.00390625
      225           0.437500   0.562500   0.062500     0.00390625
      226           0.437500   0.562500   0.187500     0.00390625
      227           0.437500   0.562500   0.312500     0.00390625
      228           0.437500   0.562500   0.437500     0.00390625
      229           0.437500   0.562500   0.562500     0.00390625
      230           0.437500   0.562500   0.687500     0.00390625
      231           0.437500   0.562500   0.812500     0.00390625
      232           0.437500   0.562500   0.937500     0.00390625
      233           0.437500   0.687500   0.062500     0.00390625
      234           0.437500   0.687500   0.187500     0.00390625
      235           0.437500   0.687500   0.312500     0.00390625
      236           0.437500   0.687500   0.437500     0.00390625
      237           0.437500   0.687500   0.562500     0.00390625
      238           0.437500   0.687500   0.687500     0.00390625
      239           0.437500   0.687500   0.812500     0.00390625
      240           0.437500   0.687500   0.937500     0.00390625
      241           0.437500   0.812500   0.062500     0.00390625
      242           0.437500   0.812500   0.187500     0.00390625
      243           0.437500   0.812500   0.312500     0.00390625
      244           0.437500   0.812500   0.437500     0.00390625
      245           0.437500   0.812500   0.562500     0.00390625
      246           0.437500   0.812500   0.687500     0.00390625
      247           0.437500   0.812500   0.812500     0.00390625
      248           0.437500   0.812500   0.937500     0.00390625
      249           0.437500   0.937500   0.062500     0.00390625
      250           0.437500   0.937500   0.187500     0.00390625
      251           0.437500   0.937500   0.312500     0.00390625
      252           0.437500   0.937500   0.437500     0.00390625
      253           0.437500   0.937500   0.562500     0.00390625
      254           0.437500   0.937500   0.687500     0.00390625
      255           0.437500   0.937500   0.812500     0.00390625
      256           0.437500   0.937500   0.937500     0.00390625
--------------------------------------------------------------------------------


********************************************************************************
*  General input information                                                   *
********************************************************************************

  Species output for all configurations : 

--------------------------------------------------------------------------------
  Species    Type    Atomic    Atomic    Charge       Radii (Angs)     Library
                     Number     Mass       (e)     Cova   Ionic  VDW   Symbol
--------------------------------------------------------------------------------
    C        Core        6      12.01   0.000000   0.770  0.000  1.530          
--------------------------------------------------------------------------------


  Lattice summation method               =    Ewald          (3-D)
                                         =    Parry          (2-D)
                                         =    Saunders et al (1-D)
  Accuracy factor for lattice sums       =   12.000


  Analytic derivatives to be used

  Time limit = Infinity

  Maximum range for interatomic potentials =    100000.000000 Angstroms

  Brenner et al 2002 potential to be used with explicit splines for P


********************************************************************************
*  Output for configuration   1                                                *
********************************************************************************


  Components of energy : 

--------------------------------------------------------------------------------
  Interatomic potentials     =           0.00000000 eV    
  Brenner potentials         =         -58.95694885 eV    
  Monopole - monopole (real) =           0.00000000 eV    
  Monopole - monopole (recip)=           0.00000000 eV    
  Monopole - monopole (total)=           0.00000000 eV    
--------------------------------------------------------------------------------
  Total lattice energy       =         -58.95694885 eV    
--------------------------------------------------------------------------------
  Total lattice energy       =           -5688.4443 kJ/(mole unit cells)
--------------------------------------------------------------------------------


  Elastic Constant Matrix: (Units=GPa)

-------------------------------------------------------------------------------
  Indices      1         2         3         4         5         6    
-------------------------------------------------------------------------------
       1   1086.4878  129.6109  129.6109    0.0000    0.0000    0.0000
       2    129.6109 1086.4878  129.6109    0.0000    0.0000    0.0000
       3    129.6109  129.6109 1086.4878    0.0000    0.0000    0.0000
       4      0.0000    0.0000    0.0000  728.8478   -0.0000   -0.0000
       5      0.0000    0.0000    0.0000   -0.0000  728.8478   -0.0000
       6      0.0000    0.0000    0.0000   -0.0000   -0.0000  728.8478
-------------------------------------------------------------------------------


  Elastic Compliance Matrix: (Units=1/GPa)

-------------------------------------------------------------------------------
  Indices      1         2         3         4         5         6    
-------------------------------------------------------------------------------
       1    0.000944 -0.000101 -0.000101 -0.000000 -0.000000 -0.000000
       2   -0.000101  0.000944 -0.000101 -0.000000 -0.000000 -0.000000
       3   -0.000101 -0.000101  0.000944 -0.000000 -0.000000 -0.000000
       4   -0.000000 -0.000000 -0.000000  0.001372  0.000000  0.000000
       5   -0.000000 -0.000000 -0.000000  0.000000  0.001372  0.000000
       6   -0.000000 -0.000000 -0.000000  0.000000  0.000000  0.001372
-------------------------------------------------------------------------------

  Mechanical properties :

-------------------------------------------------------------------------------
  Convention :                    Reuss         Voigt         Hill
-------------------------------------------------------------------------------
  Bulk  Modulus (GPa)     =     448.56992     448.56992     448.56992
  Shear Modulus (GPa)     =     602.67455     628.68407     615.67931
-------------------------------------------------------------------------------
  Velocity S-wave (km/s)  =      13.06090      13.33976      13.20107
  Velocity P-wave (km/s)  =      18.82598      19.08490      18.95588
-------------------------------------------------------------------------------
  Compressibility (1/GPa) =    0.00222931
-------------------------------------------------------------------------------
  Stress axis :                     x             y             z
-------------------------------------------------------------------------------
  Youngs Moduli (GPa)     =    1058.86016    1058.86016    1058.86016
-------------------------------------------------------------------------------
  Poissons Ratio (x)      =                     0.10658       0.10658
  Poissons Ratio (y)      =       0.10658                     0.10658
  Poissons Ratio (z)      =       0.10658       0.10658
-------------------------------------------------------------------------------


  Piezoelectric Strain Matrix: (Units=C/m**2)

-------------------------------------------------------------------------------
  Indices      1         2         3         4         5         6    
-------------------------------------------------------------------------------
       x    -0.00000  -0.00000  -0.00000  -0.00000  -0.00000  -0.00000
       y    -0.00000  -0.00000  -0.00000  -0.00000  -0.00000  -0.00000
       z    -0.00000  -0.00000  -0.00000  -0.00000  -0.00000  -0.00000
-------------------------------------------------------------------------------


  Piezoelectric Stress Matrix: (Units=10**-11 C/N)

-------------------------------------------------------------------------------
  Indices      1         2         3         4         5         6    
-------------------------------------------------------------------------------
       x     0.00000   0.00000   0.00000   0.00000   0.00000   0.00000
       y     0.00000   0.00000   0.00000   0.00000   0.00000   0.00000
       z     0.00000   0.00000   0.00000   0.00000   0.00000   0.00000
-------------------------------------------------------------------------------


  Static dielectric constant tensor : 

-------------------------------------------------------------------------------
              x         y         z
-------------------------------------------------------------------------------
       x     1.00000   0.00000   0.00000
       y     0.00000   1.00000   0.00000
       z     0.00000   0.00000   1.00000
--------------------------------------------------------------------------------

  Static refractive indices : 

-------------------------------------------------------------------------------
    1 =    1.00000      2 =    1.00000      3 =    1.00000
-------------------------------------------------------------------------------


  Phonon Calculation : 

  Number of k points for this configuration =      256

--------------------------------------------------------------------------------
  K point      1 =   0.062500  0.062500  0.062500  Weight =    0.004
--------------------------------------------------------------------------------

  Frequencies (cm-1) [NB: Negative implies an imaginary mode]:

  127.45  127.45  202.59 1058.74 1058.74 1058.74 1071.91 1071.91 1071.91
 1227.85 1227.85 1227.85 1276.91 1276.91 1276.91 1298.57 1298.57 1298.57
 1363.39 1363.39 1363.39 1580.16 1580.16 1584.40


--------------------------------------------------------------------------------
  K point      2 =   0.062500  0.062500  0.187500  Weight =    0.004
--------------------------------------------------------------------------------

  Frequencies (cm-1) [NB: Negative implies an imaginary mode]:

  250.16  267.18  363.00  972.54  981.86 1051.38 1051.38 1088.55 1088.55
 1140.39 1180.61 1180.61 1257.97 1257.97 1332.03 1332.03 1336.96 1343.54
 1382.81 1382.81 1430.22 1567.93 1568.40 1580.60


--------------------------------------------------------------------------------
  K point      3 =   0.062500  0.062500  0.312500  Weight =    0.004
--------------------------------------------------------------------------------

  Frequencies (cm-1) [NB: Negative implies an imaginary mode]:

  410.56  422.28  537.87  854.37  860.00 1014.69 1052.28 1052.28 1105.50
 1105.50 1136.02 1136.02 1229.60 1229.60 1363.13 1363.13 1401.11 1401.11
 1403.51 1407.99 1484.44 1544.82 1544.99 1570.40


--------------------------------------------------------------------------------
  K point      4 =   0.062500  0.062500  0.437500  Weight =    0.004
--------------------------------------------------------------------------------

  Frequencies (cm-1) [NB: Negative implies an imaginary mode]:

  570.12  574.92  708.98  720.14  721.21  869.42 1062.02 1062.02 1097.84
 1097.84 1123.22 1123.22 1209.19 1209.19 1380.27 1380.27 1411.05 1411.05
 1461.98 1464.88 1509.32 1510.72 1524.56 1552.43


--------------------------------------------------------------------------------
  K point      5 =   0.062500  0.062500  0.562500  Weight =    0.004
--------------------------------------------------------------------------------

  Frequencies (cm-1) [NB: Negative implies an imaginary mode]:

  570.12  574.92  708.98  720.14  721.21  869.42 1062.02 1062.02 1097.84
 1097.84 1123.22 1123.22 1209.19 1209.19 1380.27 1380.27 1411.05 1411.05
 1461.98 1464.88 1509.32 1510.72 1524.56 1552.43


--------------------------------------------------------------------------------
  K point      6 =   0.062500  0.062500  0.687500  Weight =    0.004
--------------------------------------------------------------------------------

  Frequencies (cm-1) [NB: Negative implies an imaginary mode]:

  410.56  422.28  537.87  854.37  860.00 1014.69 1052.28 1052.28 1105.50
 1105.50 1136.02 1136.02 1229.60 1229.60 1363.13 1363.13 1401.11 1401.11
 1403.51 1407.99 1484.44 1544.82 1544.99 1570.40


--------------------------------------------------------------------------------
  K point      7 =   0.062500  0.062500  0.812500  Weight =    0.004
--------------------------------------------------------------------------------

  Frequencies (cm-1) [NB: Negative implies an imaginary mode]:

  250.16  267.18  363.00  972.54  981.86 1051.38 1051.38 1088.55 1088.55
 1140.39 1180.61 1180.61 1257.97 1257.97 1332.03 1332.03 1336.96 1343.54
 1382.81 1382.81 1430.22 1567.93 1568.40 1580.60


--------------------------------------------------------------------------------
  K point      8 =   0.062500  0.062500  0.937500  Weight =    0.004
--------------------------------------------------------------------------------

  Frequencies (cm-1) [NB: Negative implies an imaginary mode]:

  127.45  127.45  202.59 1058.74 1058.74 1058.74 1071.91 1071.91 1071.91
 1227.85 1227.85 1227.85 1276.91 1276.91 1276.91 1298.57 1298.57 1298.57
 1363.39 1363.39 1363.39 1580.16 1580.16 1584.40


--------------------------------------------------------------------------------
  K point      9 =   0.062500  0.187500  0.062500  Weight =    0.004
--------------------------------------------------------------------------------

  Frequencies (cm-1) [NB: Negative implies an imaginary mode]:

  250.16  267.18  363.00  972.54  981.86 1051.38 1051.38 1088.55 1088.55
 1140.39 1180.61 1180.61 1257.97 1257.97 1332.03 1332.03 1336.96 1343.54
 1382.81 1382.81 1430.22 1567.93 1568.40 1580.60


--------------------------------------------------------------------------------
  K point     10 =   0.062500  0.187500  0.187500  Weight =    0.004
--------------------------------------------------------------------------------

  Frequencies (cm-1) [NB: Negative implies an imaginary mode]:

  298.04  352.14  485.21  970.07  970.07  997.99  997.99 1015.35 1114.63
 1117.12 1117.12 1151.39 1294.12 1294.22 1329.19 1329.19 1367.51 1367.51
 1412.94 1426.39 1426.39 1554.05 1557.72 1577.73


--------------------------------------------------------------------------------
  K point     11 =   0.062500  0.187500  0.312500  Weight =    0.004
--------------------------------------------------------------------------------

  Frequencies (cm-1) [NB: Negative implies an imaginary mode]:

  416.56  480.23  628.59  850.15  881.62  970.74  987.85 1019.40 1020.70
 1096.69 1100.43 1140.00 1270.19 1313.11 1333.48 1395.15 1396.34 1419.31
 1419.92 1432.65 1473.65 1530.50 1536.95 1566.48


--------------------------------------------------------------------------------
  K point     12 =   0.062500  0.187500  0.437500  Weight =    0.004
--------------------------------------------------------------------------------

  Frequencies (cm-1) [NB: Negative implies an imaginary mode]:

  562.09  617.98  710.56  753.66  770.79  903.24  970.37  973.34 1043.28
 1070.18 1099.51 1121.65 1274.04 1292.80 1367.49 1392.39 1428.74 1437.79
 1452.55 1467.21 1497.10 1506.60 1514.19 1545.39


--------------------------------------------------------------------------------
  K point     13 =   0.062500  0.187500  0.562500  Weight =    0.004
--------------------------------------------------------------------------------

  Frequencies (cm-1) [NB: Negative implies an imaginary mode]:

  562.09  617.98  710.56  753.66  770.79  903.24  970.37  973.34 1043.28
 1070.18 1099.51 1121.65 1274.04 1292.80 1367.49 1392.39 1428.74 1437.79
 1452.55 1467.21 1497.10 1506.60 1514.19 1545.39


--------------------------------------------------------------------------------
  K point     14 =   0.062500  0.187500  0.687500  Weight =    0.004
--------------------------------------------------------------------------------

  Frequencies (cm-1) [NB: Negative implies an imaginary mode]:

  416.56  480.23  628.59  850.15  881.62  970.74  987.85 1019.40 1020.70
 1096.69 1100.43 1140.00 1270.19 1313.11 1333.48 1395.15 1396.34 1419.31
 1419.92 1432.65 1473.65 1530.50 1536.95 1566.48


--------------------------------------------------------------------------------
  K point     15 =   0.062500  0.187500  0.812500  Weight =    0.004
--------------------------------------------------------------------------------

  Frequencies (cm-1) [NB: Negative implies an imaginary mode]:

  298.04  352.14  485.21  970.07  970.07  997.99  997.99 1015.35 1114.63
 1117.12 1117.12 1151.39 1294.12 1294.22 1329.19 1329.19 1367.51 1367.51
 1412.94 1426.39 1426.39 1554.05 1557.72 1577.73


--------------------------------------------------------------------------------
  K point     16 =   0.062500  0.187500  0.937500  Weight =    0.004
--------------------------------------------------------------------------------

  Frequencies (cm-1) [NB: Negative implies an imaginary mode]:

  250.16  267.18  363.00  972.54  981.86 1051.38 1051.38 1088.55 1088.55
 1140.39 1180.61 1180.61 1257.97 1257.97 1332.03 1332.03 1336.96 1343.54
 1382.81 1382.81 1430.22 1567.93 1568.40 1580.60


--------------------------------------------------------------------------------
  K point     17 =   0.062500  0.312500  0.062500  Weight =    0.004
--------------------------------------------------------------------------------

  Frequencies (cm-1) [NB: Negative implies an imaginary mode]:

  410.56  422.28  537.87  854.37  860.00 1014.69 1052.28 1052.28 1105.50
 1105.50 1136.02 1136.02 1229.60 1229.60 1363.13 1363.13 1401.11 1401.11
 1403.51 1407.99 1484.44 1544.82 1544.99 1570.40


--------------------------------------------------------------------------------
  K point     18 =   0.062500  0.312500  0.187500  Weight =    0.004
--------------------------------------------------------------------------------

  Frequencies (cm-1) [NB: Negative implies an imaginary mode]:

  416.56  480.23  628.59  850.15  881.62  970.74  987.85 1019.40 1020.70
 1096.69 1100.43 1140.00 1270.19 1313.11 1333.48 1395.15 1396.34 1419.31
 1419.92 1432.65 1473.65 1530.50 1536.95 1566.48


--------------------------------------------------------------------------------
  K point     19 =   0.062500  0.312500  0.312500  Weight =    0.004
--------------------------------------------------------------------------------

  Frequencies (cm-1) [NB: Negative implies an imaginary mode]:

  478.18  579.73  739.72  847.38  847.38  922.07  922.07  928.27 1034.01
 1034.01 1065.52 1125.45 1320.46 1331.18 1382.17 1382.17 1436.42 1436.42
 1452.05 1452.05 1452.31 1506.68 1521.27 1553.41


--------------------------------------------------------------------------------
  K point     20 =   0.062500  0.312500  0.437500  Weight =    0.004
--------------------------------------------------------------------------------

  Frequencies (cm-1) [NB: Negative implies an imaginary mode]:

  585.46  695.17  714.23  812.22  849.87  856.05  882.75  949.89  972.99
 1023.34 1056.40 1089.34 1341.64 1362.85 1376.21 1419.03 1434.91 1451.86
 1458.30 1470.23 1475.20 1492.98 1498.57 1528.76


--------------------------------------------------------------------------------
  K point     21 =   0.062500  0.312500  0.562500  Weight =    0.004
--------------------------------------------------------------------------------

  Frequencies (cm-1) [NB: Negative implies an imaginary mode]:

  585.46  695.17  714.23  812.22  849.87  856.05  882.75  949.89  972.99
 1023.34 1056.40 1089.34 1341.64 1362.85 1376.21 1419.03 1434.91 1451.86
 1458.30 1470.23 1475.20 1492.98 1498.57 1528.76


--------------------------------------------------------------------------------
  K point     22 =   0.062500  0.312500  0.687500  Weight =    0.004
--------------------------------------------------------------------------------

  Frequencies (cm-1) [NB: Negative implies an imaginary mode]:

  478.18  579.73  739.72  847.38  847.38  922.07  922.07  928.27 1034.01
 1034.01 1065.52 1125.45 1320.46 1331.18 1382.17 1382.17 1436.42 1436.42
 1452.05 1452.05 1452.31 1506.68 1521.27 1553.41


--------------------------------------------------------------------------------
  K point     23 =   0.062500  0.312500  0.812500  Weight =    0.004
--------------------------------------------------------------------------------

  Frequencies (cm-1) [NB: Negative implies an imaginary mode]:

  416.56  480.23  628.59  850.15  881.62  970.74  987.85 1019.40 1020.70
 1096.69 1100.43 1140.00 1270.19 1313.11 1333.48 1395.15 1396.34 1419.31
 1419.92 1432.65 1473.65 1530.50 1536.95 1566.48


--------------------------------------------------------------------------------
  K point     24 =   0.062500  0.312500  0.937500  Weight =    0.004
--------------------------------------------------------------------------------

  Frequencies (cm-1) [NB: Negative implies an imaginary mode]:

  410.56  422.28  537.87  854.37  860.00 1014.69 1052.28 1052.28 1105.50
 1105.50 1136.02 1136.02 1229.60 1229.60 1363.13 1363.13 1401.11 1401.11
 1403.51 1407.99 1484.44 1544.82 1544.99 1570.40


--------------------------------------------------------------------------------
  K point     25 =   0.062500  0.437500  0.062500  Weight =    0.004
--------------------------------------------------------------------------------

  Frequencies (cm-1) [NB: Negative implies an imaginary mode]:

  570.12  574.92  708.98  720.14  721.21  869.42 1062.02 1062.02 1097.84
 1097.84 1123.22 1123.22 1209.19 1209.19 1380.27 1380.27 1411.05 1411.05
 1461.98 1464.88 1509.32 1510.72 1524.56 1552.43


--------------------------------------------------------------------------------
  K point     26 =   0.062500  0.437500  0.187500  Weight =    0.004
--------------------------------------------------------------------------------

  Frequencies (cm-1) [NB: Negative implies an imaginary mode]:

  562.09  617.98  710.56  753.66  770.79  903.24  970.37  973.34 1043.28
 1070.18 1099.51 1121.65 1274.04 1292.80 1367.49 1392.39 1428.74 1437.79
 1452.55 1467.21 1497.10 1506.60 1514.19 1545.39


--------------------------------------------------------------------------------
  K point     27 =   0.062500  0.437500  0.312500  Weight =    0.004
--------------------------------------------------------------------------------

  Frequencies (cm-1) [NB: Negative implies an imaginary mode]:

  585.46  695.17  714.23  812.22  849.87  856.05  882.75  949.89  972.99
 1023.34 1056.40 1089.34 1341.64 1362.85 1376.21 1419.03 1434.91 1451.86
 1458.30 1470.23 1475.20 1492.98 1498.57 1528.76


--------------------------------------------------------------------------------
  K point     28 =   0.062500  0.437500  0.437500  Weight =    0.004
--------------------------------------------------------------------------------

  Frequencies (cm-1) [NB: Negative implies an imaginary mode]:

  649.85  744.84  744.84  788.76  803.25  885.01  885.01  928.14  959.37
  998.26  998.26 1045.26 1384.69 1411.59 1411.59 1412.94 1446.67 1456.81
 1456.81 1469.87 1474.26 1474.26 1485.03 1501.59


--------------------------------------------------------------------------------
  K point     29 =   0.062500  0.437500  0.562500  Weight =    0.004
--------------------------------------------------------------------------------

  Frequencies (cm-1) [NB: Negative implies an imaginary mode]:

  649.85  744.84  744.84  788.76  803.25  885.01  885.01  928.14  959.37
  998.26  998.26 1045.26 1384.69 1411.59 1411.59 1412.94 1446.67 1456.81
 1456.81 1469.87 1474.26 1474.26 1485.03 1501.59


--------------------------------------------------------------------------------
  K point     30 =   0.062500  0.437500  0.687500  Weight =    0.004
--------------------------------------------------------------------------------

  Frequencies (cm-1) [NB: Negative implies an imaginary mode]:

  585.46  695.17  714.23  812.22  849.87  856.05  882.75  949.89  972.99
 1023.34 1056.40 1089.34 1341.64 1362.85 1376.21 1419.03 1434.91 1451.86
 1458.30 1470.23 1475.20 1492.98 1498.57 1528.76


--------------------------------------------------------------------------------
  K point     31 =   0.062500  0.437500  0.812500  Weight =    0.004
--------------------------------------------------------------------------------

  Frequencies (cm-1) [NB: Negative implies an imaginary mode]:

  562.09  617.98  710.56  753.66  770.79  903.24  970.37  973.34 1043.28
 1070.18 1099.51 1121.65 1274.04 1292.80 1367.49 1392.39 1428.74 1437.79
 1452.55 1467.21 1497.10 1506.60 1514.19 1545.39


--------------------------------------------------------------------------------
  K point     32 =   0.062500  0.437500  0.937500  Weight =    0.004
--------------------------------------------------------------------------------

  Frequencies (cm-1) [NB: Negative implies an imaginary mode]:

  570.12  574.92  708.98  720.14  721.21  869.42 1062.02 1062.02 1097.84
 1097.84 1123.22 1123.22 1209.19 1209.19 1380.27 1380.27 1411.05 1411.05
 1461.98 1464.88 1509.32 1510.72 1524.56 1552.43


--------------------------------------------------------------------------------
  K point     33 =   0.062500  0.562500  0.062500  Weight =    0.004
--------------------------------------------------------------------------------

  Frequencies (cm-1) [NB: Negative implies an imaginary mode]:

  570.12  574.92  708.98  720.14  721.21  869.42 1062.02 1062.02 1097.84
 1097.84 1123.22 1123.22 1209.19 1209.19 1380.27 1380.27 1411.05 1411.05
 1461.98 1464.88 1509.32 1510.72 1524.56 1552.43


--------------------------------------------------------------------------------
  K point     34 =   0.062500  0.562500  0.187500  Weight =    0.004
--------------------------------------------------------------------------------

  Frequencies (cm-1) [NB: Negative implies an imaginary mode]:

  562.09  617.98  710.56  753.66  770.79  903.24  970.37  973.34 1043.28
 1070.18 1099.51 1121.65 1274.04 1292.80 1367.49 1392.39 1428.74 1437.79
 1452.55 1467.21 1497.10 1506.60 1514.19 1545.39


--------------------------------------------------------------------------------
  K point     35 =   0.062500  0.562500  0.312500  Weight =    0.004
--------------------------------------------------------------------------------

  Frequencies (cm-1) [NB: Negative implies an imaginary mode]:

  585.46  695.17  714.23  812.22  849.87  856.05  882.75  949.89  972.99
 1023.34 1056.40 1089.34 1341.64 1362.85 1376.21 1419.03 1434.91 1451.86
 1458.30 1470.23 1475.20 1492.98 1498.57 1528.76


--------------------------------------------------------------------------------
  K point     36 =   0.062500  0.562500  0.437500  Weight =    0.004
--------------------------------------------------------------------------------

  Frequencies (cm-1) [NB: Negative implies an imaginary mode]:

  649.85  744.84  744.84  788.76  803.25  885.01  885.01  928.14  959.37
  998.26  998.26 1045.26 1384.69 1411.59 1411.59 1412.94 1446.67 1456.81
 1456.81 1469.87 1474.26 1474.26 1485.03 1501.59


--------------------------------------------------------------------------------
  K point     37 =   0.062500  0.562500  0.562500  Weight =    0.004
--------------------------------------------------------------------------------

  Frequencies (cm-1) [NB: Negative implies an imaginary mode]:

  649.85  744.84  744.84  788.76  803.25  885.01  885.01  928.14  959.37
  998.26  998.26 1045.26 1384.69 1411.59 1411.59 1412.94 1446.67 1456.81
 1456.81 1469.87 1474.26 1474.26 1485.03 1501.59


--------------------------------------------------------------------------------
  K point     38 =   0.062500  0.562500  0.687500  Weight =    0.004
--------------------------------------------------------------------------------

  Frequencies (cm-1) [NB: Negative implies an imaginary mode]:

  585.46  695.17  714.23  812.22  849.87  856.05  882.75  949.89  972.99
 1023.34 1056.40 1089.34 1341.64 1362.85 1376.21 1419.03 1434.91 1451.86
 1458.30 1470.23 1475.20 1492.98 1498.57 1528.76


--------------------------------------------------------------------------------
  K point     39 =   0.062500  0.562500  0.812500  Weight =    0.004
--------------------------------------------------------------------------------

  Frequencies (cm-1) [NB: Negative implies an imaginary mode]:

  562.09  617.98  710.56  753.66  770.79  903.24  970.37  973.34 1043.28
 1070.18 1099.51 1121.65 1274.04 1292.80 1367.49 1392.39 1428.74 1437.79
 1452.55 1467.21 1497.10 1506.60 1514.19 1545.39


--------------------------------------------------------------------------------
  K point     40 =   0.062500  0.562500  0.937500  Weight =    0.004
--------------------------------------------------------------------------------

  Frequencies (cm-1) [NB: Negative implies an imaginary mode]:

  570.12  574.92  708.98  720.14  721.21  869.42 1062.02 1062.02 1097.84
 1097.84 1123.22 1123.22 1209.19 1209.19 1380.27 1380.27 1411.05 1411.05
 1461.98 1464.88 1509.32 1510.72 1524.56 1552.43


--------------------------------------------------------------------------------
  K point     41 =   0.062500  0.687500  0.062500  Weight =    0.004
--------------------------------------------------------------------------------

  Frequencies (cm-1) [NB: Negative implies an imaginary mode]:

  410.56  422.28  537.87  854.37  860.00 1014.69 1052.28 1052.28 1105.50
 1105.50 1136.02 1136.02 1229.60 1229.60 1363.13 1363.13 1401.11 1401.11
 1403.51 1407.99 1484.44 1544.82 1544.99 1570.40


--------------------------------------------------------------------------------
  K point     42 =   0.062500  0.687500  0.187500  Weight =    0.004
--------------------------------------------------------------------------------

  Frequencies (cm-1) [NB: Negative implies an imaginary mode]:

  416.56  480.23  628.59  850.15  881.62  970.74  987.85 1019.40 1020.70
 1096.69 1100.43 1140.00 1270.19 1313.11 1333.48 1395.15 1396.34 1419.31
 1419.92 1432.65 1473.65 1530.50 1536.95 1566.48


--------------------------------------------------------------------------------
  K point     43 =   0.062500  0.687500  0.312500  Weight =    0.004
--------------------------------------------------------------------------------

  Frequencies (cm-1) [NB: Negative implies an imaginary mode]:

  478.18  579.73  739.72  847.38  847.38  922.07  922.07  928.27 1034.01
 1034.01 1065.52 1125.45 1320.46 1331.18 1382.17 1382.17 1436.42 1436.42
 1452.05 1452.05 1452.31 1506.68 1521.27 1553.41


--------------------------------------------------------------------------------
  K point     44 =   0.062500  0.687500  0.437500  Weight =    0.004
--------------------------------------------------------------------------------

  Frequencies (cm-1) [NB: Negative implies an imaginary mode]:

  585.46  695.17  714.23  812.22  849.87  856.05  882.75  949.89  972.99
 1023.34 1056.40 1089.34 1341.64 1362.85 1376.21 1419.03 1434.91 1451.86
 1458.30 1470.23 1475.20 1492.98 1498.57 1528.76


--------------------------------------------------------------------------------
  K point     45 =   0.062500  0.687500  0.562500  Weight =    0.004
--------------------------------------------------------------------------------

  Frequencies (cm-1) [NB: Negative implies an imaginary mode]:

  585.46  695.17  714.23  812.22  849.87  856.05  882.75  949.89  972.99
 1023.34 1056.40 1089.34 1341.64 1362.85 1376.21 1419.03 1434.91 1451.86
 1458.30 1470.23 1475.20 1492.98 1498.57 1528.76


--------------------------------------------------------------------------------
  K point     46 =   0.062500  0.687500  0.687500  Weight =    0.004
--------------------------------------------------------------------------------

  Frequencies (cm-1) [NB: Negative implies an imaginary mode]:

  478.18  579.73  739.72  847.38  847.38  922.07  922.07  928.27 1034.01
 1034.01 1065.52 1125.45 1320.46 1331.18 1382.17 1382.17 1436.42 1436.42
 1452.05 1452.05 1452.31 1506.68 1521.27 1553.41


--------------------------------------------------------------------------------
  K point     47 =   0.062500  0.687500  0.812500  Weight =    0.004
--------------------------------------------------------------------------------

  Frequencies (cm-1) [NB: Negative implies an imaginary mode]:

  416.56  480.23  628.59  850.15  881.62  970.74  987.85 1019.40 1020.70
 1096.69 1100.43 1140.00 1270.19 1313.11 1333.48 1395.15 1396.34 1419.31
 1419.92 1432.65 1473.65 1530.50 1536.95 1566.48


--------------------------------------------------------------------------------
  K point     48 =   0.062500  0.687500  0.937500  Weight =    0.004
--------------------------------------------------------------------------------

  Frequencies (cm-1) [NB: Negative implies an imaginary mode]:

  410.56  422.28  537.87  854.37  860.00 1014.69 1052.28 1052.28 1105.50
 1105.50 1136.02 1136.02 1229.60 1229.60 1363.13 1363.13 1401.11 1401.11
 1403.51 1407.99 1484.44 1544.82 1544.99 1570.40


--------------------------------------------------------------------------------
  K point     49 =   0.062500  0.812500  0.062500  Weight =    0.004
--------------------------------------------------------------------------------

  Frequencies (cm-1) [NB: Negative implies an imaginary mode]:

  250.16  267.18  363.00  972.54  981.86 1051.38 1051.38 1088.55 1088.55
 1140.39 1180.61 1180.61 1257.97 1257.97 1332.03 1332.03 1336.96 1343.54
 1382.81 1382.81 1430.22 1567.93 1568.40 1580.60


--------------------------------------------------------------------------------
  K point     50 =   0.062500  0.812500  0.187500  Weight =    0.004
--------------------------------------------------------------------------------

  Frequencies (cm-1) [NB: Negative implies an imaginary mode]:

  298.04  352.14  485.21  970.07  970.07  997.99  997.99 1015.35 1114.63
 1117.12 1117.12 1151.39 1294.12 1294.22 1329.19 1329.19 1367.51 1367.51
 1412.94 1426.39 1426.39 1554.05 1557.72 1577.73


--------------------------------------------------------------------------------
  K point     51 =   0.062500  0.812500  0.312500  Weight =    0.004
--------------------------------------------------------------------------------

  Frequencies (cm-1) [NB: Negative implies an imaginary mode]:

  416.56  480.23  628.59  850.15  881.62  970.74  987.85 1019.40 1020.70
 1096.69 1100.43 1140.00 1270.19 1313.11 1333.48 1395.15 1396.34 1419.31
 1419.92 1432.65 1473.65 1530.50 1536.95 1566.48


--------------------------------------------------------------------------------
  K point     52 =   0.062500  0.812500  0.437500  Weight =    0.004
--------------------------------------------------------------------------------

  Frequencies (cm-1) [NB: Negative implies an imaginary mode]:

  562.09  617.98  710.56  753.66  770.79  903.24  970.37  973.34 1043.28
 1070.18 1099.51 1121.65 1274.04 1292.80 1367.49 1392.39 1428.74 1437.79
 1452.55 1467.21 1497.10 1506.60 1514.19 1545.39


--------------------------------------------------------------------------------
  K point     53 =   0.062500  0.812500  0.562500  Weight =    0.004
--------------------------------------------------------------------------------

  Frequencies (cm-1) [NB: Negative implies an imaginary mode]:

  562.09  617.98  710.56  753.66  770.79  903.24  970.37  973.34 1043.28
 1070.18 1099.51 1121.65 1274.04 1292.80 1367.49 1392.39 1428.74 1437.79
 1452.55 1467.21 1497.10 1506.60 1514.19 1545.39


--------------------------------------------------------------------------------
  K point     54 =   0.062500  0.812500  0.687500  Weight =    0.004
--------------------------------------------------------------------------------

  Frequencies (cm-1) [NB: Negative implies an imaginary mode]:

  416.56  480.23  628.59  850.15  881.62  970.74  987.85 1019.40 1020.70
 1096.69 1100.43 1140.00 1270.19 1313.11 1333.48 1395.15 1396.34 1419.31
 1419.92 1432.65 1473.65 1530.50 1536.95 1566.48


--------------------------------------------------------------------------------
  K point     55 =   0.062500  0.812500  0.812500  Weight =    0.004
--------------------------------------------------------------------------------

  Frequencies (cm-1) [NB: Negative implies an imaginary mode]:

  298.04  352.14  485.21  970.07  970.07  997.99  997.99 1015.35 1114.63
 1117.12 1117.12 1151.39 1294.12 1294.22 1329.19 1329.19 1367.51 1367.51
 1412.94 1426.39 1426.39 1554.05 1557.72 1577.73


--------------------------------------------------------------------------------
  K point     56 =   0.062500  0.812500  0.937500  Weight =    0.004
--------------------------------------------------------------------------------

  Frequencies (cm-1) [NB: Negative implies an imaginary mode]:

  250.16  267.18  363.00  972.54  981.86 1051.38 1051.38 1088.55 1088.55
 1140.39 1180.61 1180.61 1257.97 1257.97 1332.03 1332.03 1336.96 1343.54
 1382.81 1382.81 1430.22 1567.93 1568.40 1580.60


--------------------------------------------------------------------------------
  K point     57 =   0.062500  0.937500  0.062500  Weight =    0.004
--------------------------------------------------------------------------------

  Frequencies (cm-1) [NB: Negative implies an imaginary mode]:

  127.45  127.45  202.59 1058.74 1058.74 1058.74 1071.91 1071.91 1071.91
 1227.85 1227.85 1227.85 1276.91 1276.91 1276.91 1298.57 1298.57 1298.57
 1363.39 1363.39 1363.39 1580.16 1580.16 1584.40


--------------------------------------------------------------------------------
  K point     58 =   0.062500  0.937500  0.187500  Weight =    0.004
--------------------------------------------------------------------------------

  Frequencies (cm-1) [NB: Negative implies an imaginary mode]:

  250.16  267.18  363.00  972.54  981.86 1051.38 1051.38 1088.55 1088.55
 1140.39 1180.61 1180.61 1257.97 1257.97 1332.03 1332.03 1336.96 1343.54
 1382.81 1382.81 1430.22 1567.93 1568.40 1580.60


--------------------------------------------------------------------------------
  K point     59 =   0.062500  0.937500  0.312500  Weight =    0.004
--------------------------------------------------------------------------------

  Frequencies (cm-1) [NB: Negative implies an imaginary mode]:

  410.56  422.28  537.87  854.37  860.00 1014.69 1052.28 1052.28 1105.50
 1105.50 1136.02 1136.02 1229.60 1229.60 1363.13 1363.13 1401.11 1401.11
 1403.51 1407.99 1484.44 1544.82 1544.99 1570.40


--------------------------------------------------------------------------------
  K point     60 =   0.062500  0.937500  0.437500  Weight =    0.004
--------------------------------------------------------------------------------

  Frequencies (cm-1) [NB: Negative implies an imaginary mode]:

  570.12  574.92  708.98  720.14  721.21  869.42 1062.02 1062.02 1097.84
 1097.84 1123.22 1123.22 1209.19 1209.19 1380.27 1380.27 1411.05 1411.05
 1461.98 1464.88 1509.32 1510.72 1524.56 1552.43


--------------------------------------------------------------------------------
  K point     61 =   0.062500  0.937500  0.562500  Weight =    0.004
--------------------------------------------------------------------------------

  Frequencies (cm-1) [NB: Negative implies an imaginary mode]:

  570.12  574.92  708.98  720.14  721.21  869.42 1062.02 1062.02 1097.84
 1097.84 1123.22 1123.22 1209.19 1209.19 1380.27 1380.27 1411.05 1411.05
 1461.98 1464.88 1509.32 1510.72 1524.56 1552.43


--------------------------------------------------------------------------------
  K point     62 =   0.062500  0.937500  0.687500  Weight =    0.004
--------------------------------------------------------------------------------

  Frequencies (cm-1) [NB: Negative implies an imaginary mode]:

  410.56  422.28  537.87  854.37  860.00 1014.69 1052.28 1052.28 1105.50
 1105.50 1136.02 1136.02 1229.60 1229.60 1363.13 1363.13 1401.11 1401.11
 1403.51 1407.99 1484.44 1544.82 1544.99 1570.40


--------------------------------------------------------------------------------
  K point     63 =   0.062500  0.937500  0.812500  Weight =    0.004
--------------------------------------------------------------------------------

  Frequencies (cm-1) [NB: Negative implies an imaginary mode]:

  250.16  267.18  363.00  972.54  981.86 1051.38 1051.38 1088.55 1088.55
 1140.39 1180.61 1180.61 1257.97 1257.97 1332.03 1332.03 1336.96 1343.54
 1382.81 1382.81 1430.22 1567.93 1568.40 1580.60


--------------------------------------------------------------------------------
  K point     64 =   0.062500  0.937500  0.937500  Weight =    0.004
--------------------------------------------------------------------------------

  Frequencies (cm-1) [NB: Negative implies an imaginary mode]:

  127.45  127.45  202.59 1058.74 1058.74 1058.74 1071.91 1071.91 1071.91
 1227.85 1227.85 1227.85 1276.91 1276.91 1276.91 1298.57 1298.57 1298.57
 1363.39 1363.39 1363.39 1580.16 1580.16 1584.40


--------------------------------------------------------------------------------
  K point     65 =   0.187500  0.062500  0.062500  Weight =    0.004
--------------------------------------------------------------------------------

  Frequencies (cm-1) [NB: Negative implies an imaginary mode]:

  250.16  267.18  363.00  972.54  981.86 1051.38 1051.38 1088.55 1088.55
 1140.39 1180.61 1180.61 1257.97 1257.97 1332.03 1332.03 1336.96 1343.54
 1382.81 1382.81 1430.22 1567.93 1568.40 1580.60


--------------------------------------------------------------------------------
  K point     66 =   0.187500  0.062500  0.187500  Weight =    0.004
--------------------------------------------------------------------------------

  Frequencies (cm-1) [NB: Negative implies an imaginary mode]:

  298.04  352.14  485.21  970.07  970.07  997.99  997.99 1015.35 1114.63
 1117.12 1117.12 1151.39 1294.12 1294.22 1329.19 1329.19 1367.51 1367.51
 1412.94 1426.39 1426.39 1554.05 1557.72 1577.73


--------------------------------------------------------------------------------
  K point     67 =   0.187500  0.062500  0.312500  Weight =    0.004
--------------------------------------------------------------------------------

  Frequencies (cm-1) [NB: Negative implies an imaginary mode]:

  416.56  480.23  628.59  850.15  881.62  970.74  987.85 1019.40 1020.70
 1096.69 1100.43 1140.00 1270.19 1313.11 1333.48 1395.15 1396.34 1419.31
 1419.92 1432.65 1473.65 1530.50 1536.95 1566.48


--------------------------------------------------------------------------------
  K point     68 =   0.187500  0.062500  0.437500  Weight =    0.004
--------------------------------------------------------------------------------

  Frequencies (cm-1) [NB: Negative implies an imaginary mode]:

  562.09  617.98  710.56  753.66  770.79  903.24  970.37  973.34 1043.28
 1070.18 1099.51 1121.65 1274.04 1292.80 1367.49 1392.39 1428.74 1437.79
 1452.55 1467.21 1497.10 1506.60 1514.19 1545.39


--------------------------------------------------------------------------------
  K point     69 =   0.187500  0.062500  0.562500  Weight =    0.004
--------------------------------------------------------------------------------

  Frequencies (cm-1) [NB: Negative implies an imaginary mode]:

  562.09  617.98  710.56  753.66  770.79  903.24  970.37  973.34 1043.28
 1070.18 1099.51 1121.65 1274.04 1292.80 1367.49 1392.39 1428.74 1437.79
 1452.55 1467.21 1497.10 1506.60 1514.19 1545.39


--------------------------------------------------------------------------------
  K point     70 =   0.187500  0.062500  0.687500  Weight =    0.004
--------------------------------------------------------------------------------

  Frequencies (cm-1) [NB: Negative implies an imaginary mode]:

  416.56  480.23  628.59  850.15  881.62  970.74  987.85 1019.40 1020.70
 1096.69 1100.43 1140.00 1270.19 1313.11 1333.48 1395.15 1396.34 1419.31
 1419.92 1432.65 1473.65 1530.50 1536.95 1566.48


--------------------------------------------------------------------------------
  K point     71 =   0.187500  0.062500  0.812500  Weight =    0.004
--------------------------------------------------------------------------------

  Frequencies (cm-1) [NB: Negative implies an imaginary mode]:

  298.04  352.14  485.21  970.07  970.07  997.99  997.99 1015.35 1114.63
 1117.12 1117.12 1151.39 1294.12 1294.22 1329.19 1329.19 1367.51 1367.51
 1412.94 1426.39 1426.39 1554.05 1557.72 1577.73


--------------------------------------------------------------------------------
  K point     72 =   0.187500  0.062500  0.937500  Weight =    0.004
--------------------------------------------------------------------------------

  Frequencies (cm-1) [NB: Negative implies an imaginary mode]:

  250.16  267.18  363.00  972.54  981.86 1051.38 1051.38 1088.55 1088.55
 1140.39 1180.61 1180.61 1257.97 1257.97 1332.03 1332.03 1336.96 1343.54
 1382.81 1382.81 1430.22 1567.93 1568.40 1580.60


--------------------------------------------------------------------------------
  K point     73 =   0.187500  0.187500  0.062500  Weight =    0.004
--------------------------------------------------------------------------------

  Frequencies (cm-1) [NB: Negative implies an imaginary mode]:

  298.04  352.14  485.21  970.07  970.07  997.99  997.99 1015.35 1114.63
 1117.12 1117.12 1151.39 1294.12 1294.22 1329.19 1329.19 1367.51 1367.51
 1412.94 1426.39 1426.39 1554.05 1557.72 1577.73


--------------------------------------------------------------------------------
  K point     74 =   0.187500  0.187500  0.187500  Weight =    0.004
--------------------------------------------------------------------------------

  Frequencies (cm-1) [NB: Negative implies an imaginary mode]:

  371.67  371.67  587.56  948.38  948.38  948.38 1009.00 1009.00 1009.00
 1113.29 1113.29 1113.29 1338.33 1338.33 1338.33 1362.73 1362.73 1362.73
 1432.24 1432.24 1432.24 1543.10 1543.10 1576.08


--------------------------------------------------------------------------------
  K point     75 =   0.187500  0.187500  0.312500  Weight =    0.004
--------------------------------------------------------------------------------

  Frequencies (cm-1) [NB: Negative implies an imaginary mode]:

  459.95  483.34  713.07  848.01  876.89  932.56  932.56 1002.35 1002.35
 1042.80 1118.86 1118.86 1331.06 1331.06 1375.95 1375.95 1393.92 1423.23
 1437.08 1437.08 1465.72 1521.21 1521.30 1565.18


--------------------------------------------------------------------------------
  K point     76 =   0.187500  0.187500  0.437500  Weight =    0.004
--------------------------------------------------------------------------------

  Frequencies (cm-1) [NB: Negative implies an imaginary mode]:

  589.73  607.53  731.64  733.79  836.90  925.39  925.39  948.84  991.05
  991.05 1127.50 1127.50 1321.51 1321.51 1389.63 1389.63 1438.45 1438.45
 1445.58 1463.96 1488.54 1494.90 1507.04 1542.20


--------------------------------------------------------------------------------
  K point     77 =   0.187500  0.187500  0.562500  Weight =    0.004
--------------------------------------------------------------------------------

  Frequencies (cm-1) [NB: Negative implies an imaginary mode]:

  589.73  607.53  731.64  733.79  836.90  925.39  925.39  948.84  991.05
  991.05 1127.50 1127.50 1321.51 1321.51 1389.63 1389.63 1438.45 1438.45
 1445.58 1463.96 1488.54 1494.90 1507.04 1542.20


--------------------------------------------------------------------------------
  K point     78 =   0.187500  0.187500  0.687500  Weight =    0.004
--------------------------------------------------------------------------------

  Frequencies (cm-1) [NB: Negative implies an imaginary mode]:

  459.95  483.34  713.07  848.01  876.89  932.56  932.56 1002.35 1002.35
 1042.80 1118.86 1118.86 1331.06 1331.06 1375.95 1375.95 1393.92 1423.23
 1437.08 1437.08 1465.72 1521.21 1521.30 1565.18


--------------------------------------------------------------------------------
  K point     79 =   0.187500  0.187500  0.812500  Weight =    0.004
--------------------------------------------------------------------------------

  Frequencies (cm-1) [NB: Negative implies an imaginary mode]:

  371.67  371.67  587.56  948.38  948.38  948.38 1009.00 1009.00 1009.00
 1113.29 1113.29 1113.29 1338.33 1338.33 1338.33 1362.73 1362.73 1362.73
 1432.24 1432.24 1432.24 1543.10 1543.10 1576.08


--------------------------------------------------------------------------------
  K point     80 =   0.187500  0.187500  0.937500  Weight =    0.004
--------------------------------------------------------------------------------

  Frequencies (cm-1) [NB: Negative implies an imaginary mode]:

  298.04  352.14  485.21  970.07  970.07  997.99  997.99 1015.35 1114.63
 1117.12 1117.12 1151.39 1294.12 1294.22 1329.19 1329.19 1367.51 1367.51
 1412.94 1426.39 1426.39 1554.05 1557.72 1577.73


--------------------------------------------------------------------------------
  K point     81 =   0.187500  0.312500  0.062500  Weight =    0.004
--------------------------------------------------------------------------------

  Frequencies (cm-1) [NB: Negative implies an imaginary mode]:

  416.56  480.23  628.59  850.15  881.62  970.74  987.85 1019.40 1020.70
 1096.69 1100.43 1140.00 1270.19 1313.11 1333.48 1395.15 1396.34 1419.31
 1419.92 1432.65 1473.65 1530.50 1536.95 1566.48


--------------------------------------------------------------------------------
  K point     82 =   0.187500  0.312500  0.187500  Weight =    0.004
--------------------------------------------------------------------------------

  Frequencies (cm-1) [NB: Negative implies an imaginary mode]:

  459.95  483.34  713.07  848.01  876.89  932.56  932.56 1002.35 1002.35
 1042.80 1118.86 1118.86 1331.06 1331.06 1375.95 1375.95 1393.92 1423.23
 1437.08 1437.08 1465.72 1521.21 1521.30 1565.18


--------------------------------------------------------------------------------
  K point     83 =   0.187500  0.312500  0.312500  Weight =    0.004
--------------------------------------------------------------------------------

  Frequencies (cm-1) [NB: Negative implies an imaginary mode]:

  515.18  560.15  817.88  840.11  840.11  886.64  886.64  889.62  972.34
 1074.34 1074.34 1133.48 1353.52 1371.18 1385.19 1385.19 1432.06 1432.06
 1447.55 1450.49 1450.49 1497.87 1503.58 1554.42


--------------------------------------------------------------------------------
  K point     84 =   0.187500  0.312500  0.437500  Weight =    0.004
--------------------------------------------------------------------------------

  Frequencies (cm-1) [NB: Negative implies an imaginary mode]:

  608.61  663.06  724.91  773.06  840.22  856.74  908.91  919.36  938.96
 1006.87 1105.46 1128.02 1361.06 1372.44 1397.01 1424.93 1431.10 1444.66
 1449.63 1459.03 1468.57 1480.90 1492.36 1530.47


--------------------------------------------------------------------------------
  K point     85 =   0.187500  0.312500  0.562500  Weight =    0.004
--------------------------------------------------------------------------------

  Frequencies (cm-1) [NB: Negative implies an imaginary mode]:

  608.61  663.06  724.91  773.06  840.22  856.74  908.91  919.36  938.96
 1006.87 1105.46 1128.02 1361.06 1372.44 1397.01 1424.93 1431.10 1444.66
 1449.63 1459.03 1468.57 1480.90 1492.36 1530.47


--------------------------------------------------------------------------------
  K point     86 =   0.187500  0.312500  0.687500  Weight =    0.004
--------------------------------------------------------------------------------

  Frequencies (cm-1) [NB: Negative implies an imaginary mode]:

  515.18  560.15  817.88  840.11  840.11  886.64  886.64  889.62  972.34
 1074.34 1074.34 1133.48 1353.52 1371.18 1385.19 1385.19 1432.06 1432.06
 1447.55 1450.49 1450.49 1497.87 1503.58 1554.42


--------------------------------------------------------------------------------
  K point     87 =   0.187500  0.312500  0.812500  Weight =    0.004
--------------------------------------------------------------------------------

  Frequencies (cm-1) [NB: Negative implies an imaginary mode]:

  459.95  483.34  713.07  848.01  876.89  932.56  932.56 1002.35 1002.35
 1042.80 1118.86 1118.86 1331.06 1331.06 1375.95 1375.95 1393.92 1423.23
 1437.08 1437.08 1465.72 1521.21 1521.30 1565.18


--------------------------------------------------------------------------------
  K point     88 =   0.187500  0.312500  0.937500  Weight =    0.004
--------------------------------------------------------------------------------

  Frequencies (cm-1) [NB: Negative implies an imaginary mode]:

  416.56  480.23  628.59  850.15  881.62  970.74  987.85 1019.40 1020.70
 1096.69 1100.43 1140.00 1270.19 1313.11 1333.48 1395.15 1396.34 1419.31
 1419.92 1432.65 1473.65 1530.50 1536.95 1566.48


--------------------------------------------------------------------------------
  K point     89 =   0.187500  0.437500  0.062500  Weight =    0.004
--------------------------------------------------------------------------------

  Frequencies (cm-1) [NB: Negative implies an imaginary mode]:

  562.09  617.98  710.56  753.66  770.79  903.24  970.37  973.34 1043.28
 1070.18 1099.51 1121.65 1274.04 1292.80 1367.49 1392.39 1428.74 1437.79
 1452.55 1467.21 1497.10 1506.60 1514.19 1545.39


--------------------------------------------------------------------------------
  K point     90 =   0.187500  0.437500  0.187500  Weight =    0.004
--------------------------------------------------------------------------------

  Frequencies (cm-1) [NB: Negative implies an imaginary mode]:

  589.73  607.53  731.64  733.79  836.90  925.39  925.39  948.84  991.05
  991.05 1127.50 1127.50 1321.51 1321.51 1389.63 1389.63 1438.45 1438.45
 1445.58 1463.96 1488.54 1494.90 1507.04 1542.20


--------------------------------------------------------------------------------
  K point     91 =   0.187500  0.437500  0.312500  Weight =    0.004
--------------------------------------------------------------------------------

  Frequencies (cm-1) [NB: Negative implies an imaginary mode]:

  608.61  663.06  724.91  773.06  840.22  856.74  908.91  919.36  938.96
 1006.87 1105.46 1128.02 1361.06 1372.44 1397.01 1424.93 1431.10 1444.66
 1449.63 1459.03 1468.57 1480.90 1492.36 1530.47


--------------------------------------------------------------------------------
  K point     92 =   0.187500  0.437500  0.437500  Weight =    0.004
--------------------------------------------------------------------------------

  Frequencies (cm-1) [NB: Negative implies an imaginary mode]:

  661.49  741.03  744.45  744.45  791.27  825.34  825.34  882.68  997.39
 1061.24 1061.24 1103.82 1390.27 1411.82 1411.82 1422.51 1442.64 1448.14
 1448.14 1460.00 1464.64 1473.40 1473.40 1507.25


--------------------------------------------------------------------------------
  K point     93 =   0.187500  0.437500  0.562500  Weight =    0.004
--------------------------------------------------------------------------------

  Frequencies (cm-1) [NB: Negative implies an imaginary mode]:

  661.49  741.03  744.45  744.45  791.27  825.34  825.34  882.68  997.39
 1061.24 1061.24 1103.82 1390.27 1411.82 1411.82 1422.51 1442.64 1448.14
 1448.14 1460.00 1464.64 1473.40 1473.40 1507.25


--------------------------------------------------------------------------------
  K point     94 =   0.187500  0.437500  0.687500  Weight =    0.004
--------------------------------------------------------------------------------

  Frequencies (cm-1) [NB: Negative implies an imaginary mode]:

  608.61  663.06  724.91  773.06  840.22  856.74  908.91  919.36  938.96
 1006.87 1105.46 1128.02 1361.06 1372.44 1397.01 1424.93 1431.10 1444.66
 1449.63 1459.03 1468.57 1480.90 1492.36 1530.47


--------------------------------------------------------------------------------
  K point     95 =   0.187500  0.437500  0.812500  Weight =    0.004
--------------------------------------------------------------------------------

  Frequencies (cm-1) [NB: Negative implies an imaginary mode]:

  589.73  607.53  731.64  733.79  836.90  925.39  925.39  948.84  991.05
  991.05 1127.50 1127.50 1321.51 1321.51 1389.63 1389.63 1438.45 1438.45
 1445.58 1463.96 1488.54 1494.90 1507.04 1542.20


--------------------------------------------------------------------------------
  K point     96 =   0.187500  0.437500  0.937500  Weight =    0.004
--------------------------------------------------------------------------------

  Frequencies (cm-1) [NB: Negative implies an imaginary mode]:

  562.09  617.98  710.56  753.66  770.79  903.24  970.37  973.34 1043.28
 1070.18 1099.51 1121.65 1274.04 1292.80 1367.49 1392.39 1428.74 1437.79
 1452.55 1467.21 1497.10 1506.60 1514.19 1545.39


--------------------------------------------------------------------------------
  K point     97 =   0.187500  0.562500  0.062500  Weight =    0.004
--------------------------------------------------------------------------------

  Frequencies (cm-1) [NB: Negative implies an imaginary mode]:

  562.09  617.98  710.56  753.66  770.79  903.24  970.37  973.34 1043.28
 1070.18 1099.51 1121.65 1274.04 1292.80 1367.49 1392.39 1428.74 1437.79
 1452.55 1467.21 1497.10 1506.60 1514.19 1545.39


--------------------------------------------------------------------------------
  K point     98 =   0.187500  0.562500  0.187500  Weight =    0.004
--------------------------------------------------------------------------------

  Frequencies (cm-1) [NB: Negative implies an imaginary mode]:

  589.73  607.53  731.64  733.79  836.90  925.39  925.39  948.84  991.05
  991.05 1127.50 1127.50 1321.51 1321.51 1389.63 1389.63 1438.45 1438.45
 1445.58 1463.96 1488.54 1494.90 1507.04 1542.20


--------------------------------------------------------------------------------
  K point     99 =   0.187500  0.562500  0.312500  Weight =    0.004
--------------------------------------------------------------------------------

  Frequencies (cm-1) [NB: Negative implies an imaginary mode]:

  608.61  663.06  724.91  773.06  840.22  856.74  908.91  919.36  938.96
 1006.87 1105.46 1128.02 1361.06 1372.44 1397.01 1424.93 1431.10 1444.66
 1449.63 1459.03 1468.57 1480.90 1492.36 1530.47


--------------------------------------------------------------------------------
  K point    100 =   0.187500  0.562500  0.437500  Weight =    0.004
--------------------------------------------------------------------------------

  Frequencies (cm-1) [NB: Negative implies an imaginary mode]:

  661.49  741.03  744.45  744.45  791.27  825.34  825.34  882.68  997.39
 1061.24 1061.24 1103.82 1390.27 1411.82 1411.82 1422.51 1442.64 1448.14
 1448.14 1460.00 1464.64 1473.40 1473.40 1507.25


--------------------------------------------------------------------------------
  K point    101 =   0.187500  0.562500  0.562500  Weight =    0.004
--------------------------------------------------------------------------------

  Frequencies (cm-1) [NB: Negative implies an imaginary mode]:

  661.49  741.03  744.45  744.45  791.27  825.34  825.34  882.68  997.39
 1061.24 1061.24 1103.82 1390.27 1411.82 1411.82 1422.51 1442.64 1448.14
 1448.14 1460.00 1464.64 1473.40 1473.40 1507.25


--------------------------------------------------------------------------------
  K point    102 =   0.187500  0.562500  0.687500  Weight =    0.004
--------------------------------------------------------------------------------

  Frequencies (cm-1) [NB: Negative implies an imaginary mode]:

  608.61  663.06  724.91  773.06  840.22  856.74  908.91  919.36  938.96
 1006.87 1105.46 1128.02 1361.06 1372.44 1397.01 1424.93 1431.10 1444.66
 1449.63 1459.03 1468.57 1480.90 1492.36 1530.47


--------------------------------------------------------------------------------
  K point    103 =   0.187500  0.562500  0.812500  Weight =    0.004
--------------------------------------------------------------------------------

  Frequencies (cm-1) [NB: Negative implies an imaginary mode]:

  589.73  607.53  731.64  733.79  836.90  925.39  925.39  948.84  991.05
  991.05 1127.50 1127.50 1321.51 1321.51 1389.63 1389.63 1438.45 1438.45
 1445.58 1463.96 1488.54 1494.90 1507.04 1542.20


--------------------------------------------------------------------------------
  K point    104 =   0.187500  0.562500  0.937500  Weight =    0.004
--------------------------------------------------------------------------------

  Frequencies (cm-1) [NB: Negative implies an imaginary mode]:

  562.09  617.98  710.56  753.66  770.79  903.24  970.37  973.34 1043.28
 1070.18 1099.51 1121.65 1274.04 1292.80 1367.49 1392.39 1428.74 1437.79
 1452.55 1467.21 1497.10 1506.60 1514.19 1545.39


--------------------------------------------------------------------------------
  K point    105 =   0.187500  0.687500  0.062500  Weight =    0.004
--------------------------------------------------------------------------------

  Frequencies (cm-1) [NB: Negative implies an imaginary mode]:

  416.56  480.23  628.59  850.15  881.62  970.74  987.85 1019.40 1020.70
 1096.69 1100.43 1140.00 1270.19 1313.11 1333.48 1395.15 1396.34 1419.31
 1419.92 1432.65 1473.65 1530.50 1536.95 1566.48


--------------------------------------------------------------------------------
  K point    106 =   0.187500  0.687500  0.187500  Weight =    0.004
--------------------------------------------------------------------------------

  Frequencies (cm-1) [NB: Negative implies an imaginary mode]:

  459.95  483.34  713.07  848.01  876.89  932.56  932.56 1002.35 1002.35
[...]
--------------------------------------------------------------------------------
  Zero point energy            =        1.718098 eV
  Entropy                      =        0.000002 eV/K
                               =        0.192010 J/(mol.K)
  Helmholtz free-energy        =      -57.238887 eV
                               =    -5522.677169 kJmol-1
  Free energy (equipartition)  =      -58.463188 eV
  - T*S       (equipartition)  =        0.328308 eV
  Uvib        (equipartition)  =        0.165453 eV
  Mean kinetic energy          =        0.859110 eV
  Heat capacity - const volume =        0.000006 eV/K
                               =        0.616743 J/(mol.K)
--------------------------------------------------------------------------------
  Phonon properties (per mole of unit cells): Temperature =     90.000 K
--------------------------------------------------------------------------------
  Zero point energy            =        1.718098 eV
  Entropy                      =        0.000003 eV/K
                               =        0.279960 J/(mol.K)
  Helmholtz free-energy        =      -57.238912 eV
                               =    -5522.679510 kJmol-1
  Free energy (equipartition)  =      -58.423391 eV
  - T*S       (equipartition)  =        0.347423 eV
  Uvib        (equipartition)  =        0.186134 eV
  Mean kinetic energy          =        0.859149 eV
  Heat capacity - const volume =        0.000009 eV/K
                               =        0.894561 J/(mol.K)
--------------------------------------------------------------------------------
  Phonon properties (per mole of unit cells): Temperature =    100.000 K
--------------------------------------------------------------------------------
  Zero point energy            =        1.718098 eV
  Entropy                      =        0.000004 eV/K
                               =        0.392033 J/(mol.K)
  Helmholtz free-energy        =      -57.238946 eV
                               =    -5522.682848 kJmol-1
  Free energy (equipartition)  =      -58.385897 eV
  - T*S       (equipartition)  =        0.364235 eV
  Uvib        (equipartition)  =        0.206816 eV
  Mean kinetic energy          =        0.859204 eV
  Heat capacity - const volume =        0.000013 eV/K
                               =        1.253920 J/(mol.K)
--------------------------------------------------------------------------------
  Phonon properties (per mole of unit cells): Temperature =    110.000 K
--------------------------------------------------------------------------------
  Zero point energy            =        1.718098 eV
  Entropy                      =        0.000006 eV/K
                               =        0.532069 J/(mol.K)
  Helmholtz free-energy        =      -57.238994 eV
                               =    -5522.687444 kJmol-1
  Free energy (equipartition)  =      -58.350475 eV
  - T*S       (equipartition)  =        0.378976 eV
  Uvib        (equipartition)  =        0.227498 eV
  Mean kinetic energy          =        0.859281 eV
  Heat capacity - const volume =        0.000018 eV/K
                               =        1.708941 J/(mol.K)
--------------------------------------------------------------------------------
  Phonon properties (per mole of unit cells): Temperature =    120.000 K
--------------------------------------------------------------------------------
  Zero point energy            =        1.718098 eV
  Entropy                      =        0.000007 eV/K
                               =        0.704125 J/(mol.K)
  Helmholtz free-energy        =      -57.239058 eV
                               =    -5522.693596 kJmol-1
  Free energy (equipartition)  =      -58.316936 eV
  - T*S       (equipartition)  =        0.391834 eV
  Uvib        (equipartition)  =        0.248179 eV
  Mean kinetic energy          =        0.859383 eV
  Heat capacity - const volume =        0.000024 eV/K
                               =        2.273327 J/(mol.K)
--------------------------------------------------------------------------------
  Phonon properties (per mole of unit cells): Temperature =    130.000 K
--------------------------------------------------------------------------------
  Zero point energy            =        1.718098 eV
  Entropy                      =        0.000009 eV/K
                               =        0.912331 J/(mol.K)
  Helmholtz free-energy        =      -57.239141 eV
                               =    -5522.701647 kJmol-1
  Free energy (equipartition)  =      -58.285121 eV
  - T*S       (equipartition)  =        0.402966 eV
  Uvib        (equipartition)  =        0.268861 eV
  Mean kinetic energy          =        0.859519 eV
  Heat capacity - const volume =        0.000031 eV/K
                               =        2.959386 J/(mol.K)
--------------------------------------------------------------------------------
  Phonon properties (per mole of unit cells): Temperature =    140.000 K
--------------------------------------------------------------------------------
  Zero point energy            =        1.718098 eV
  Entropy                      =        0.000012 eV/K
                               =        1.160737 J/(mol.K)
  Helmholtz free-energy        =      -57.239248 eV
                               =    -5522.711977 kJmol-1
  Free energy (equipartition)  =      -58.254900 eV
  - T*S       (equipartition)  =        0.412506 eV
  Uvib        (equipartition)  =        0.289542 eV
  Mean kinetic energy          =        0.859692 eV
  Heat capacity - const volume =        0.000039 eV/K
                               =        3.777313 J/(mol.K)
--------------------------------------------------------------------------------
  Phonon properties (per mole of unit cells): Temperature =    150.000 K
--------------------------------------------------------------------------------
  Zero point energy            =        1.718098 eV
  Entropy                      =        0.000015 eV/K
                               =        1.453175 J/(mol.K)
  Helmholtz free-energy        =      -57.239383 eV
                               =    -5522.725008 kJmol-1
  Free energy (equipartition)  =      -58.226157 eV
  - T*S       (equipartition)  =        0.420568 eV
  Uvib        (equipartition)  =        0.310224 eV
  Mean kinetic energy          =        0.859912 eV
  Heat capacity - const volume =        0.000049 eV/K
                               =        4.734801 J/(mol.K)
--------------------------------------------------------------------------------
  Phonon properties (per mole of unit cells): Temperature =    160.000 K
--------------------------------------------------------------------------------
  Zero point energy            =        1.718098 eV
  Entropy                      =        0.000019 eV/K
                               =        1.793148 J/(mol.K)
  Helmholtz free-energy        =      -57.239551 eV
                               =    -5522.741199 kJmol-1
  Free energy (equipartition)  =      -58.198793 eV
  - T*S       (equipartition)  =        0.427250 eV
  Uvib        (equipartition)  =        0.330906 eV
  Mean kinetic energy          =        0.860186 eV
  Heat capacity - const volume =        0.000060 eV/K
                               =        5.836943 J/(mol.K)
--------------------------------------------------------------------------------
  Phonon properties (per mole of unit cells): Temperature =    170.000 K
--------------------------------------------------------------------------------
  Zero point energy            =        1.718098 eV
  Entropy                      =        0.000023 eV/K
                               =        2.183753 J/(mol.K)
  Helmholtz free-energy        =      -57.239757 eV
                               =    -5522.761040 kJmol-1
  Free energy (equipartition)  =      -58.172724 eV
  - T*S       (equipartition)  =        0.432638 eV
  Uvib        (equipartition)  =        0.351587 eV
  Mean kinetic energy          =        0.860520 eV
  Heat capacity - const volume =        0.000073 eV/K
                               =        7.086323 J/(mol.K)
--------------------------------------------------------------------------------
  Phonon properties (per mole of unit cells): Temperature =    180.000 K
--------------------------------------------------------------------------------
  Zero point energy            =        1.718098 eV
  Entropy                      =        0.000027 eV/K
                               =        2.627638 J/(mol.K)
  Helmholtz free-energy        =      -57.240005 eV
                               =    -5522.785052 kJmol-1
  Free energy (equipartition)  =      -58.147871 eV
  - T*S       (equipartition)  =        0.436809 eV
  Uvib        (equipartition)  =        0.372269 eV
  Mean kinetic energy          =        0.860923 eV
  Heat capacity - const volume =        0.000088 eV/K
                               =        8.483224 J/(mol.K)
--------------------------------------------------------------------------------
  Phonon properties (per mole of unit cells): Temperature =    190.000 K
--------------------------------------------------------------------------------
  Zero point energy            =        1.718098 eV
  Entropy                      =        0.000032 eV/K
                               =        3.126980 J/(mol.K)
  Helmholtz free-energy        =      -57.240303 eV
                               =    -5522.813778 kJmol-1
  Free energy (equipartition)  =      -58.124168 eV
  - T*S       (equipartition)  =        0.439830 eV
  Uvib        (equipartition)  =        0.392951 eV
  Mean kinetic energy          =        0.861402 eV
  Heat capacity - const volume =        0.000104 eV/K
                               =       10.025879 J/(mol.K)
--------------------------------------------------------------------------------
  Phonon properties (per mole of unit cells): Temperature =    200.000 K
--------------------------------------------------------------------------------
  Zero point energy            =        1.718098 eV
  Entropy                      =        0.000038 eV/K
                               =        3.683484 J/(mol.K)
  Helmholtz free-energy        =      -57.240656 eV
                               =    -5522.847782 kJmol-1
  Free energy (equipartition)  =      -58.101554 eV
  - T*S       (equipartition)  =        0.441763 eV
  Uvib        (equipartition)  =        0.413632 eV
  Mean kinetic energy          =        0.861964 eV
  Heat capacity - const volume =        0.000121 eV/K
                               =       11.710728 J/(mol.K)
--------------------------------------------------------------------------------
  Phonon properties (per mole of unit cells): Temperature =    210.000 K
--------------------------------------------------------------------------------
  Zero point energy            =        1.718098 eV
  Entropy                      =        0.000045 eV/K
                               =        4.298392 J/(mol.K)
  Helmholtz free-energy        =      -57.241069 eV
                               =    -5522.887642 kJmol-1
  Free energy (equipartition)  =      -58.079974 eV
  - T*S       (equipartition)  =        0.442661 eV
  Uvib        (equipartition)  =        0.434314 eV
  Mean kinetic energy          =        0.862618 eV
  Heat capacity - const volume =        0.000140 eV/K
                               =       13.532674 J/(mol.K)
--------------------------------------------------------------------------------
  Phonon properties (per mole of unit cells): Temperature =    220.000 K
--------------------------------------------------------------------------------
  Zero point energy            =        1.718098 eV
  Entropy                      =        0.000052 eV/K
                               =        4.972505 J/(mol.K)
  Helmholtz free-energy        =      -57.241549 eV
                               =    -5522.933947 kJmol-1
  Free energy (equipartition)  =      -58.059380 eV
  - T*S       (equipartition)  =        0.442573 eV
  Uvib        (equipartition)  =        0.454995 eV
  Mean kinetic energy          =        0.863369 eV
  Heat capacity - const volume =        0.000160 eV/K
                               =       15.485311 J/(mol.K)
--------------------------------------------------------------------------------
  Phonon properties (per mole of unit cells): Temperature =    230.000 K
--------------------------------------------------------------------------------
  Zero point energy            =        1.718098 eV
  Entropy                      =        0.000059 eV/K
                               =        5.706209 J/(mol.K)
  Helmholtz free-energy        =      -57.242102 eV
                               =    -5522.987291 kJmol-1
  Free energy (equipartition)  =      -58.039726 eV
  - T*S       (equipartition)  =        0.441546 eV
  Uvib        (equipartition)  =        0.475677 eV
  Mean kinetic energy          =        0.864225 eV
  Heat capacity - const volume =        0.000182 eV/K
                               =       17.561149 J/(mol.K)
--------------------------------------------------------------------------------
  Phonon properties (per mole of unit cells): Temperature =    240.000 K
--------------------------------------------------------------------------------
  Zero point energy            =        1.718098 eV
  Entropy                      =        0.000067 eV/K
                               =        6.499499 J/(mol.K)
  Helmholtz free-energy        =      -57.242734 eV
                               =    -5523.048270 kJmol-1
  Free energy (equipartition)  =      -58.020972 eV
  - T*S       (equipartition)  =        0.439618 eV
  Uvib        (equipartition)  =        0.496359 eV
  Mean kinetic energy          =        0.865191 eV
  Heat capacity - const volume =        0.000205 eV/K
                               =       19.751822 J/(mol.K)
--------------------------------------------------------------------------------
  Phonon properties (per mole of unit cells): Temperature =    250.000 K
--------------------------------------------------------------------------------
  Zero point energy            =        1.718098 eV
  Entropy                      =        0.000076 eV/K
                               =        7.352018 J/(mol.K)
  Helmholtz free-energy        =      -57.243451 eV
                               =    -5523.117478 kJmol-1
  Free energy (equipartition)  =      -58.003079 eV
  - T*S       (equipartition)  =        0.436829 eV
  Uvib        (equipartition)  =        0.517040 eV
  Mean kinetic energy          =        0.866274 eV
  Heat capacity - const volume =        0.000229 eV/K
                               =       22.048282 J/(mol.K)
--------------------------------------------------------------------------------
  Phonon properties (per mole of unit cells): Temperature =    260.000 K
--------------------------------------------------------------------------------
  Zero point energy            =        1.718098 eV
  Entropy                      =        0.000086 eV/K
                               =        8.263084 J/(mol.K)
  Helmholtz free-energy        =      -57.244260 eV
                               =    -5523.195505 kJmol-1
  Free energy (equipartition)  =      -57.986014 eV
  - T*S       (equipartition)  =        0.433213 eV
  Uvib        (equipartition)  =        0.537722 eV
  Mean kinetic energy          =        0.867478 eV
  Heat capacity - const volume =        0.000253 eV/K
                               =       24.440987 J/(mol.K)
--------------------------------------------------------------------------------
  Phonon properties (per mole of unit cells): Temperature =    270.000 K
--------------------------------------------------------------------------------
  Zero point energy            =        1.718098 eV
  Entropy                      =        0.000096 eV/K
                               =        9.231726 J/(mol.K)
  Helmholtz free-energy        =      -57.245166 eV
                               =    -5523.282932 kJmol-1
  Free energy (equipartition)  =      -57.969745 eV
  - T*S       (equipartition)  =        0.428800 eV
  Uvib        (equipartition)  =        0.558403 eV
  Mean kinetic energy          =        0.868808 eV
  Heat capacity - const volume =        0.000279 eV/K
                               =       26.920078 J/(mol.K)
--------------------------------------------------------------------------------
  Phonon properties (per mole of unit cells): Temperature =    280.000 K
--------------------------------------------------------------------------------
  Zero point energy            =        1.718098 eV
  Entropy                      =        0.000106 eV/K
                               =       10.256716 J/(mol.K)
  Helmholtz free-energy        =      -57.246175 eV
                               =    -5523.380328 kJmol-1
  Free energy (equipartition)  =      -57.954242 eV
  - T*S       (equipartition)  =        0.423622 eV
  Uvib        (equipartition)  =        0.579085 eV
  Mean kinetic energy          =        0.870269 eV
  Heat capacity - const volume =        0.000305 eV/K
                               =       29.475536 J/(mol.K)
--------------------------------------------------------------------------------
  Phonon properties (per mole of unit cells): Temperature =    290.000 K
--------------------------------------------------------------------------------
  Zero point energy            =        1.718098 eV
  Entropy                      =        0.000117 eV/K
                               =       11.336604 J/(mol.K)
  Helmholtz free-energy        =      -57.247294 eV
                               =    -5523.488249 kJmol-1
  Free energy (equipartition)  =      -57.939478 eV
  - T*S       (equipartition)  =        0.417705 eV
  Uvib        (equipartition)  =        0.599767 eV
  Mean kinetic energy          =        0.871865 eV
  Heat capacity - const volume =        0.000333 eV/K
                               =       32.097332 J/(mol.K)
--------------------------------------------------------------------------------
  Phonon properties (per mole of unit cells): Temperature =    300.000 K
--------------------------------------------------------------------------------
  Zero point energy            =        1.718098 eV
  Entropy                      =        0.000129 eV/K
                               =       12.469749 J/(mol.K)
  Helmholtz free-energy        =      -57.248527 eV
                               =    -5523.607237 kJmol-1
  Free energy (equipartition)  =      -57.925427 eV
  - T*S       (equipartition)  =        0.411074 eV
  Uvib        (equipartition)  =        0.620448 eV
  Mean kinetic energy          =        0.873597 eV
  Heat capacity - const volume =        0.000360 eV/K
                               =       34.775556 J/(mol.K)
--------------------------------------------------------------------------------

  Time to end of properties =      15.9975 seconds


  Peak dynamic memory used =       1.93 MB 


  Timing analysis for GULP :

--------------------------------------------------------------------------------
  Task / Subroutine                                          Time (Seconds)
--------------------------------------------------------------------------------
  Calculation of real space energy and derivatives                0.0051
  Calculation of Brenner energy and derivatives                  15.6267
  Calculation of phonons                                         15.8989
  Disk read/write operations to scratch files                     0.0641
--------------------------------------------------------------------------------
  Total CPU time                                                 15.9976
--------------------------------------------------------------------------------


  Job Finished at 09:35.53 31st July       2020                               

