********************************************************************************
*                       GENERAL UTILITY LATTICE PROGRAM                        *
*                                 Julian Gale                                  *
*                       Curtin Institute for Computation                       *
*                           Department of Chemistry                            *
*                    Curtin University, Western Australia                      *
********************************************************************************
* Version = 5.1.0 * Last modified = 25th January 2020                          *
********************************************************************************
*  single       - perform a single point run                                   *
*  property     - calculate properties for final geometry                      *
*  phonon       - calculate phonons for final geometry                         *
********************************************************************************
* ASE calculation                                                              *
********************************************************************************


  Job Started  at 18:10.56 14th August     2020                               

  Number of CPUs =     1


  Total number of configurations input =      1

********************************************************************************
*  Input for Configuration =   1                                               *
********************************************************************************

  Formula = C8                                                          

  Number of irreducible atoms/shells =       8


  Total number atoms/shells =       8

  Dimensionality = 3               :  Bulk   



  Cartesian lattice vectors (Angstroms) :

        3.561053    0.000000    0.000000
        0.000000    3.561053    0.000000
        0.000000    0.000000    3.561053

  Cell parameters (Angstroms/Degrees):

  a =       3.5611    alpha =  90.0000
  b =       3.5611    beta  =  90.0000
  c =       3.5611    gamma =  90.0000

  Initial cell volume =          45.158064 Angs**3

  Shrinking factors =      8     8     8

  Temperature of configuration =  10.00     K 

  Pressure of configuration =         0.000 GPa 

  Fractional coordinates of asymmetric unit :

--------------------------------------------------------------------------------
   No.  Atomic       x           y          z         Charge      Occupancy
        Label      (Frac)      (Frac)     (Frac)        (e)         (Frac)  
--------------------------------------------------------------------------------
      1 C     c    0.000000    0.000000    0.000000     0.00000    1.000000    
      2 C     c    0.000000    0.500000    0.500000     0.00000    1.000000    
      3 C     c    0.500000    0.500000    0.000000     0.00000    1.000000    
      4 C     c    0.500000    0.000000    0.500000     0.00000    1.000000    
      5 C     c    0.750000    0.250000    0.750000     0.00000    1.000000    
      6 C     c    0.250000    0.250000    0.250000     0.00000    1.000000    
      7 C     c    0.250000    0.750000    0.750000     0.00000    1.000000    
      8 C     c    0.750000    0.750000    0.250000     0.00000    1.000000    
--------------------------------------------------------------------------------


  Brillouin zone sampling points :

--------------------------------------------------------------------------------
  Point number          x          y          z            Weight
--------------------------------------------------------------------------------
        1           0.062500   0.062500   0.062500     0.00390625
        2           0.062500   0.062500   0.187500     0.00390625
        3           0.062500   0.062500   0.312500     0.00390625
        4           0.062500   0.062500   0.437500     0.00390625
        5           0.062500   0.062500   0.562500     0.00390625
        6           0.062500   0.062500   0.687500     0.00390625
        7           0.062500   0.062500   0.812500     0.00390625
        8           0.062500   0.062500   0.937500     0.00390625
        9           0.062500   0.187500   0.062500     0.00390625
       10           0.062500   0.187500   0.187500     0.00390625
       11           0.062500   0.187500   0.312500     0.00390625
       12           0.062500   0.187500   0.437500     0.00390625
       13           0.062500   0.187500   0.562500     0.00390625
       14           0.062500   0.187500   0.687500     0.00390625
       15           0.062500   0.187500   0.812500     0.00390625
       16           0.062500   0.187500   0.937500     0.00390625
       17           0.062500   0.312500   0.062500     0.00390625
       18           0.062500   0.312500   0.187500     0.00390625
       19           0.062500   0.312500   0.312500     0.00390625
       20           0.062500   0.312500   0.437500     0.00390625
       21           0.062500   0.312500   0.562500     0.00390625
       22           0.062500   0.312500   0.687500     0.00390625
       23           0.062500   0.312500   0.812500     0.00390625
       24           0.062500   0.312500   0.937500     0.00390625
       25           0.062500   0.437500   0.062500     0.00390625
       26           0.062500   0.437500   0.187500     0.00390625
       27           0.062500   0.437500   0.312500     0.00390625
       28           0.062500   0.437500   0.437500     0.00390625
       29           0.062500   0.437500   0.562500     0.00390625
       30           0.062500   0.437500   0.687500     0.00390625
       31           0.062500   0.437500   0.812500     0.00390625
       32           0.062500   0.437500   0.937500     0.00390625
       33           0.062500   0.562500   0.062500     0.00390625
       34           0.062500   0.562500   0.187500     0.00390625
       35           0.062500   0.562500   0.312500     0.00390625
       36           0.062500   0.562500   0.437500     0.00390625
       37           0.062500   0.562500   0.562500     0.00390625
       38           0.062500   0.562500   0.687500     0.00390625
       39           0.062500   0.562500   0.812500     0.00390625
       40           0.062500   0.562500   0.937500     0.00390625
       41           0.062500   0.687500   0.062500     0.00390625
       42           0.062500   0.687500   0.187500     0.00390625
       43           0.062500   0.687500   0.312500     0.00390625
       44           0.062500   0.687500   0.437500     0.00390625
       45           0.062500   0.687500   0.562500     0.00390625
       46           0.062500   0.687500   0.687500     0.00390625
       47           0.062500   0.687500   0.812500     0.00390625
       48           0.062500   0.687500   0.937500     0.00390625
       49           0.062500   0.812500   0.062500     0.00390625
       50           0.062500   0.812500   0.187500     0.00390625
       51           0.062500   0.812500   0.312500     0.00390625
       52           0.062500   0.812500   0.437500     0.00390625
       53           0.062500   0.812500   0.562500     0.00390625
       54           0.062500   0.812500   0.687500     0.00390625
       55           0.062500   0.812500   0.812500     0.00390625
       56           0.062500   0.812500   0.937500     0.00390625
       57           0.062500   0.937500   0.062500     0.00390625
       58           0.062500   0.937500   0.187500     0.00390625
       59           0.062500   0.937500   0.312500     0.00390625
       60           0.062500   0.937500   0.437500     0.00390625
       61           0.062500   0.937500   0.562500     0.00390625
       62           0.062500   0.937500   0.687500     0.00390625
       63           0.062500   0.937500   0.812500     0.00390625
       64           0.062500   0.937500   0.937500     0.00390625
       65           0.187500   0.062500   0.062500     0.00390625
       66           0.187500   0.062500   0.187500     0.00390625
       67           0.187500   0.062500   0.312500     0.00390625
       68           0.187500   0.062500   0.437500     0.00390625
       69           0.187500   0.062500   0.562500     0.00390625
       70           0.187500   0.062500   0.687500     0.00390625
       71           0.187500   0.062500   0.812500     0.00390625
       72           0.187500   0.062500   0.937500     0.00390625
       73           0.187500   0.187500   0.062500     0.00390625
       74           0.187500   0.187500   0.187500     0.00390625
       75           0.187500   0.187500   0.312500     0.00390625
       76           0.187500   0.187500   0.437500     0.00390625
       77           0.187500   0.187500   0.562500     0.00390625
       78           0.187500   0.187500   0.687500     0.00390625
       79           0.187500   0.187500   0.812500     0.00390625
       80           0.187500   0.187500   0.937500     0.00390625
       81           0.187500   0.312500   0.062500     0.00390625
       82           0.187500   0.312500   0.187500     0.00390625
       83           0.187500   0.312500   0.312500     0.00390625
       84           0.187500   0.312500   0.437500     0.00390625
       85           0.187500   0.312500   0.562500     0.00390625
       86           0.187500   0.312500   0.687500     0.00390625
       87           0.187500   0.312500   0.812500     0.00390625
       88           0.187500   0.312500   0.937500     0.00390625
       89           0.187500   0.437500   0.062500     0.00390625
       90           0.187500   0.437500   0.187500     0.00390625
       91           0.187500   0.437500   0.312500     0.00390625
       92           0.187500   0.437500   0.437500     0.00390625
       93           0.187500   0.437500   0.562500     0.00390625
       94           0.187500   0.437500   0.687500     0.00390625
       95           0.187500   0.437500   0.812500     0.00390625
       96           0.187500   0.437500   0.937500     0.00390625
       97           0.187500   0.562500   0.062500     0.00390625
       98           0.187500   0.562500   0.187500     0.00390625
       99           0.187500   0.562500   0.312500     0.00390625
      100           0.187500   0.562500   0.437500     0.00390625
      101           0.187500   0.562500   0.562500     0.00390625
      102           0.187500   0.562500   0.687500     0.00390625
      103           0.187500   0.562500   0.812500     0.00390625
      104           0.187500   0.562500   0.937500     0.00390625
      105           0.187500   0.687500   0.062500     0.00390625
      106           0.187500   0.687500   0.187500     0.00390625
      107           0.187500   0.687500   0.312500     0.00390625
      108           0.187500   0.687500   0.437500     0.00390625
      109           0.187500   0.687500   0.562500     0.00390625
      110           0.187500   0.687500   0.687500     0.00390625
      111           0.187500   0.687500   0.812500     0.00390625
      112           0.187500   0.687500   0.937500     0.00390625
      113           0.187500   0.812500   0.062500     0.00390625
      114           0.187500   0.812500   0.187500     0.00390625
      115           0.187500   0.812500   0.312500     0.00390625
      116           0.187500   0.812500   0.437500     0.00390625
      117           0.187500   0.812500   0.562500     0.00390625
      118           0.187500   0.812500   0.687500     0.00390625
      119           0.187500   0.812500   0.812500     0.00390625
      120           0.187500   0.812500   0.937500     0.00390625
      121           0.187500   0.937500   0.062500     0.00390625
      122           0.187500   0.937500   0.187500     0.00390625
      123           0.187500   0.937500   0.312500     0.00390625
      124           0.187500   0.937500   0.437500     0.00390625
      125           0.187500   0.937500   0.562500     0.00390625
      126           0.187500   0.937500   0.687500     0.00390625
      127           0.187500   0.937500   0.812500     0.00390625
      128           0.187500   0.937500   0.937500     0.00390625
      129           0.312500   0.062500   0.062500     0.00390625
      130           0.312500   0.062500   0.187500     0.00390625
      131           0.312500   0.062500   0.312500     0.00390625
      132           0.312500   0.062500   0.437500     0.00390625
      133           0.312500   0.062500   0.562500     0.00390625
      134           0.312500   0.062500   0.687500     0.00390625
      135           0.312500   0.062500   0.812500     0.00390625
      136           0.312500   0.062500   0.937500     0.00390625
      137           0.312500   0.187500   0.062500     0.00390625
      138           0.312500   0.187500   0.187500     0.00390625
      139           0.312500   0.187500   0.312500     0.00390625
      140           0.312500   0.187500   0.437500     0.00390625
      141           0.312500   0.187500   0.562500     0.00390625
      142           0.312500   0.187500   0.687500     0.00390625
      143           0.312500   0.187500   0.812500     0.00390625
      144           0.312500   0.187500   0.937500     0.00390625
      145           0.312500   0.312500   0.062500     0.00390625
      146           0.312500   0.312500   0.187500     0.00390625
      147           0.312500   0.312500   0.312500     0.00390625
      148           0.312500   0.312500   0.437500     0.00390625
      149           0.312500   0.312500   0.562500     0.00390625
      150           0.312500   0.312500   0.687500     0.00390625
      151           0.312500   0.312500   0.812500     0.00390625
      152           0.312500   0.312500   0.937500     0.00390625
      153           0.312500   0.437500   0.062500     0.00390625
      154           0.312500   0.437500   0.187500     0.00390625
      155           0.312500   0.437500   0.312500     0.00390625
      156           0.312500   0.437500   0.437500     0.00390625
      157           0.312500   0.437500   0.562500     0.00390625
      158           0.312500   0.437500   0.687500     0.00390625
      159           0.312500   0.437500   0.812500     0.00390625
      160           0.312500   0.437500   0.937500     0.00390625
      161           0.312500   0.562500   0.062500     0.00390625
      162           0.312500   0.562500   0.187500     0.00390625
      163           0.312500   0.562500   0.312500     0.00390625
      164           0.312500   0.562500   0.437500     0.00390625
      165           0.312500   0.562500   0.562500     0.00390625
      166           0.312500   0.562500   0.687500     0.00390625
      167           0.312500   0.562500   0.812500     0.00390625
      168           0.312500   0.562500   0.937500     0.00390625
      169           0.312500   0.687500   0.062500     0.00390625
      170           0.312500   0.687500   0.187500     0.00390625
      171           0.312500   0.687500   0.312500     0.00390625
      172           0.312500   0.687500   0.437500     0.00390625
      173           0.312500   0.687500   0.562500     0.00390625
      174           0.312500   0.687500   0.687500     0.00390625
      175           0.312500   0.687500   0.812500     0.00390625
      176           0.312500   0.687500   0.937500     0.00390625
      177           0.312500   0.812500   0.062500     0.00390625
      178           0.312500   0.812500   0.187500     0.00390625
      179           0.312500   0.812500   0.312500     0.00390625
      180           0.312500   0.812500   0.437500     0.00390625
      181           0.312500   0.812500   0.562500     0.00390625
      182           0.312500   0.812500   0.687500     0.00390625
      183           0.312500   0.812500   0.812500     0.00390625
      184           0.312500   0.812500   0.937500     0.00390625
      185           0.312500   0.937500   0.062500     0.00390625
      186           0.312500   0.937500   0.187500     0.00390625
      187           0.312500   0.937500   0.312500     0.00390625
      188           0.312500   0.937500   0.437500     0.00390625
      189           0.312500   0.937500   0.562500     0.00390625
      190           0.312500   0.937500   0.687500     0.00390625
      191           0.312500   0.937500   0.812500     0.00390625
      192           0.312500   0.937500   0.937500     0.00390625
      193           0.437500   0.062500   0.062500     0.00390625
      194           0.437500   0.062500   0.187500     0.00390625
      195           0.437500   0.062500   0.312500     0.00390625
      196           0.437500   0.062500   0.437500     0.00390625
      197           0.437500   0.062500   0.562500     0.00390625
      198           0.437500   0.062500   0.687500     0.00390625
      199           0.437500   0.062500   0.812500     0.00390625
      200           0.437500   0.062500   0.937500     0.00390625
      201           0.437500   0.187500   0.062500     0.00390625
      202           0.437500   0.187500   0.187500     0.00390625
      203           0.437500   0.187500   0.312500     0.00390625
      204           0.437500   0.187500   0.437500     0.00390625
      205           0.437500   0.187500   0.562500     0.00390625
      206           0.437500   0.187500   0.687500     0.00390625
      207           0.437500   0.187500   0.812500     0.00390625
      208           0.437500   0.187500   0.937500     0.00390625
      209           0.437500   0.312500   0.062500     0.00390625
      210           0.437500   0.312500   0.187500     0.00390625
      211           0.437500   0.312500   0.312500     0.00390625
      212           0.437500   0.312500   0.437500     0.00390625
      213           0.437500   0.312500   0.562500     0.00390625
      214           0.437500   0.312500   0.687500     0.00390625
      215           0.437500   0.312500   0.812500     0.00390625
      216           0.437500   0.312500   0.937500     0.00390625
      217           0.437500   0.437500   0.062500     0.00390625
      218           0.437500   0.437500   0.187500     0.00390625
      219           0.437500   0.437500   0.312500     0.00390625
      220           0.437500   0.437500   0.437500     0.00390625
      221           0.437500   0.437500   0.562500     0.00390625
      222           0.437500   0.437500   0.687500     0.00390625
      223           0.437500   0.437500   0.812500     0.00390625
      224           0.437500   0.437500   0.937500     0.00390625
      225           0.437500   0.562500   0.062500     0.00390625
      226           0.437500   0.562500   0.187500     0.00390625
      227           0.437500   0.562500   0.312500     0.00390625
      228           0.437500   0.562500   0.437500     0.00390625
      229           0.437500   0.562500   0.562500     0.00390625
      230           0.437500   0.562500   0.687500     0.00390625
      231           0.437500   0.562500   0.812500     0.00390625
      232           0.437500   0.562500   0.937500     0.00390625
      233           0.437500   0.687500   0.062500     0.00390625
      234           0.437500   0.687500   0.187500     0.00390625
      235           0.437500   0.687500   0.312500     0.00390625
      236           0.437500   0.687500   0.437500     0.00390625
      237           0.437500   0.687500   0.562500     0.00390625
      238           0.437500   0.687500   0.687500     0.00390625
      239           0.437500   0.687500   0.812500     0.00390625
      240           0.437500   0.687500   0.937500     0.00390625
      241           0.437500   0.812500   0.062500     0.00390625
      242           0.437500   0.812500   0.187500     0.00390625
      243           0.437500   0.812500   0.312500     0.00390625
      244           0.437500   0.812500   0.437500     0.00390625
      245           0.437500   0.812500   0.562500     0.00390625
      246           0.437500   0.812500   0.687500     0.00390625
      247           0.437500   0.812500   0.812500     0.00390625
      248           0.437500   0.812500   0.937500     0.00390625
      249           0.437500   0.937500   0.062500     0.00390625
      250           0.437500   0.937500   0.187500     0.00390625
      251           0.437500   0.937500   0.312500     0.00390625
      252           0.437500   0.937500   0.437500     0.00390625
      253           0.437500   0.937500   0.562500     0.00390625
      254           0.437500   0.937500   0.687500     0.00390625
      255           0.437500   0.937500   0.812500     0.00390625
      256           0.437500   0.937500   0.937500     0.00390625
--------------------------------------------------------------------------------


********************************************************************************
*  General input information                                                   *
********************************************************************************

  Species output for all configurations : 

--------------------------------------------------------------------------------
  Species    Type    Atomic    Atomic    Charge       Radii (Angs)     Library
                     Number     Mass       (e)     Cova   Ionic  VDW   Symbol
--------------------------------------------------------------------------------
    C        Core        6      12.01   0.000000   0.770  0.000  1.530          
--------------------------------------------------------------------------------


  Lattice summation method               =    Ewald          (3-D)
                                         =    Parry          (2-D)
                                         =    Saunders et al (1-D)
  Accuracy factor for lattice sums       =   12.000


  Time limit = Infinity

  Maximum range for interatomic potentials =    100000.000000 Angstroms

  Brenner et al 2002 potential to be used with explicit splines for P


********************************************************************************
*  Output for configuration   1                                                *
********************************************************************************


  Components of energy : 

--------------------------------------------------------------------------------
  Interatomic potentials     =           0.00000000 eV    
  Brenner potentials         =         -58.95692926 eV    
  Monopole - monopole (real) =           0.00000000 eV    
  Monopole - monopole (recip)=           0.00000000 eV    
  Monopole - monopole (total)=           0.00000000 eV    
--------------------------------------------------------------------------------
  Total lattice energy       =         -58.95692926 eV    
--------------------------------------------------------------------------------
  Total lattice energy       =           -5688.4424 kJ/(mole unit cells)
--------------------------------------------------------------------------------


  Elastic Constant Matrix: (Units=GPa)

-------------------------------------------------------------------------------
  Indices      1         2         3         4         5         6    
-------------------------------------------------------------------------------
       1   1086.5993  129.6534  129.6534    0.0000    0.0000    0.0000
       2    129.6534 1086.5993  129.6534    0.0000    0.0000    0.0000
       3    129.6534  129.6534 1086.5993    0.0000    0.0000    0.0000
       4      0.0000    0.0000    0.0000  728.9290   -0.0000   -0.0000
       5      0.0000    0.0000    0.0000   -0.0000  728.9290   -0.0000
       6      0.0000    0.0000    0.0000   -0.0000   -0.0000  728.9290
-------------------------------------------------------------------------------

  Elastic Constant Tensor Eigenvalues: (Units=GPa)

-------------------------------------------------------------------------------
     1 =   728.9290     2 =   728.9290     3 =   728.9290
     4 =   956.9459     5 =   956.9459     6 =  1345.9061
-------------------------------------------------------------------------------


  Elastic Compliance Matrix: (Units=1/GPa)

-------------------------------------------------------------------------------
  Indices      1         2         3         4         5         6    
-------------------------------------------------------------------------------
       1    0.000944 -0.000101 -0.000101 -0.000000 -0.000000 -0.000000
       2   -0.000101  0.000944 -0.000101 -0.000000 -0.000000 -0.000000
       3   -0.000101 -0.000101  0.000944 -0.000000 -0.000000 -0.000000
       4   -0.000000 -0.000000 -0.000000  0.001372  0.000000  0.000000
       5   -0.000000 -0.000000 -0.000000  0.000000  0.001372  0.000000
       6   -0.000000 -0.000000 -0.000000  0.000000  0.000000  0.001372
-------------------------------------------------------------------------------

  Mechanical properties :

-------------------------------------------------------------------------------
  Convention :                    Reuss         Voigt         Hill
-------------------------------------------------------------------------------
  Bulk  Modulus (GPa)     =     448.63535     448.63535     448.63535
  Shear Modulus (GPa)     =     602.72978     628.74660     615.73819
-------------------------------------------------------------------------------
  Velocity S-wave (km/s)  =      13.06124      13.34016      13.20144
  Velocity P-wave (km/s)  =      18.82665      19.08562      18.95658
-------------------------------------------------------------------------------
  Compressibility (1/GPa) =    0.00222898
-------------------------------------------------------------------------------
  Stress axis :                     x             y             z
-------------------------------------------------------------------------------
  Youngs Moduli (GPa)     =    1058.95702    1058.95702    1058.95702
-------------------------------------------------------------------------------
  Poissons Ratio (x)      =                     0.10660       0.10660
  Poissons Ratio (y)      =       0.10660                     0.10660
  Poissons Ratio (z)      =       0.10660       0.10660
-------------------------------------------------------------------------------


  Piezoelectric Strain Matrix: (Units=C/m**2)

-------------------------------------------------------------------------------
  Indices      1         2         3         4         5         6    
-------------------------------------------------------------------------------
       x    -0.00000  -0.00000  -0.00000  -0.00000  -0.00000  -0.00000
       y    -0.00000  -0.00000  -0.00000  -0.00000  -0.00000  -0.00000
       z    -0.00000  -0.00000  -0.00000  -0.00000  -0.00000  -0.00000
-------------------------------------------------------------------------------


  Piezoelectric Stress Matrix: (Units=10**-11 C/N)

-------------------------------------------------------------------------------
  Indices      1         2         3         4         5         6    
-------------------------------------------------------------------------------
       x     0.00000   0.00000   0.00000   0.00000   0.00000   0.00000
       y     0.00000   0.00000   0.00000   0.00000   0.00000   0.00000
       z     0.00000   0.00000   0.00000   0.00000   0.00000   0.00000
-------------------------------------------------------------------------------


  Static dielectric constant tensor : 

-------------------------------------------------------------------------------
              x         y         z
-------------------------------------------------------------------------------
       x     1.00000   0.00000   0.00000
       y     0.00000   1.00000   0.00000
       z     0.00000   0.00000   1.00000
--------------------------------------------------------------------------------

  Static refractive indices : 

-------------------------------------------------------------------------------
    1 =    1.00000      2 =    1.00000      3 =    1.00000
-------------------------------------------------------------------------------


  Phonon Calculation : 

  Number of k points for this configuration =      256

--------------------------------------------------------------------------------
  K point      1 =   0.062500  0.062500  0.062500  Weight =    0.004
--------------------------------------------------------------------------------

  Frequencies (cm-1) [NB: Negative implies an imaginary mode]:

  127.45  127.45  202.60 1058.78 1058.78 1058.78 1071.95 1071.95 1071.95
 1227.92 1227.92 1227.92 1277.00 1277.00 1277.00 1298.65 1298.65 1298.65
 1363.46 1363.46 1363.46 1580.24 1580.24 1584.49


--------------------------------------------------------------------------------
  K point      2 =   0.062500  0.062500  0.187500  Weight =    0.004
--------------------------------------------------------------------------------

  Frequencies (cm-1) [NB: Negative implies an imaginary mode]:

  250.17  267.19  363.02  972.58  981.90 1051.42 1051.42 1088.60 1088.60
 1140.45 1180.68 1180.68 1258.04 1258.04 1332.11 1332.11 1337.04 1343.62
 1382.89 1382.89 1430.30 1568.02 1568.49 1580.69


--------------------------------------------------------------------------------
  K point      3 =   0.062500  0.062500  0.312500  Weight =    0.004
--------------------------------------------------------------------------------

  Frequencies (cm-1) [NB: Negative implies an imaginary mode]:

  410.57  422.30  537.90  854.41  860.04 1014.74 1052.32 1052.32 1105.56
 1105.56 1136.08 1136.08 1229.67 1229.67 1363.22 1363.22 1401.20 1401.20
 1403.59 1408.07 1484.52 1544.91 1545.08 1570.49


--------------------------------------------------------------------------------
  K point      4 =   0.062500  0.062500  0.437500  Weight =    0.004
--------------------------------------------------------------------------------

  Frequencies (cm-1) [NB: Negative implies an imaginary mode]:

  570.14  574.95  709.01  720.17  721.25  869.47 1062.06 1062.06 1097.90
 1097.90 1123.28 1123.28 1209.25 1209.25 1380.36 1380.36 1411.14 1411.14
 1462.06 1464.96 1509.41 1510.80 1524.64 1552.52


--------------------------------------------------------------------------------
  K point      5 =   0.062500  0.062500  0.562500  Weight =    0.004
--------------------------------------------------------------------------------

  Frequencies (cm-1) [NB: Negative implies an imaginary mode]:

  570.14  574.95  709.01  720.17  721.25  869.47 1062.06 1062.06 1097.90
 1097.90 1123.28 1123.28 1209.25 1209.25 1380.36 1380.36 1411.14 1411.14
 1462.06 1464.96 1509.41 1510.80 1524.64 1552.52


--------------------------------------------------------------------------------
  K point      6 =   0.062500  0.062500  0.687500  Weight =    0.004
--------------------------------------------------------------------------------

  Frequencies (cm-1) [NB: Negative implies an imaginary mode]:

  410.57  422.30  537.90  854.41  860.04 1014.74 1052.32 1052.32 1105.56
 1105.56 1136.08 1136.08 1229.67 1229.67 1363.22 1363.22 1401.20 1401.20
 1403.59 1408.07 1484.52 1544.91 1545.08 1570.49


--------------------------------------------------------------------------------
  K point      7 =   0.062500  0.062500  0.812500  Weight =    0.004
--------------------------------------------------------------------------------

  Frequencies (cm-1) [NB: Negative implies an imaginary mode]:

  250.17  267.19  363.02  972.58  981.90 1051.42 1051.42 1088.60 1088.60
 1140.45 1180.68 1180.68 1258.04 1258.04 1332.11 1332.11 1337.04 1343.62
 1382.89 1382.89 1430.30 1568.02 1568.49 1580.69


--------------------------------------------------------------------------------
  K point      8 =   0.062500  0.062500  0.937500  Weight =    0.004
--------------------------------------------------------------------------------

  Frequencies (cm-1) [NB: Negative implies an imaginary mode]:

  127.45  127.45  202.60 1058.78 1058.78 1058.78 1071.95 1071.95 1071.95
 1227.92 1227.92 1227.92 1277.00 1277.00 1277.00 1298.65 1298.65 1298.65
 1363.46 1363.46 1363.46 1580.24 1580.24 1584.49


--------------------------------------------------------------------------------
  K point      9 =   0.062500  0.187500  0.062500  Weight =    0.004
--------------------------------------------------------------------------------

  Frequencies (cm-1) [NB: Negative implies an imaginary mode]:

  250.17  267.19  363.02  972.58  981.90 1051.42 1051.42 1088.60 1088.60
 1140.45 1180.68 1180.68 1258.04 1258.04 1332.11 1332.11 1337.04 1343.62
 1382.89 1382.89 1430.30 1568.02 1568.49 1580.69


--------------------------------------------------------------------------------
  K point     10 =   0.062500  0.187500  0.187500  Weight =    0.004
--------------------------------------------------------------------------------

  Frequencies (cm-1) [NB: Negative implies an imaginary mode]:

  298.05  352.16  485.24  970.11  970.11  998.04  998.04 1015.39 1114.68
 1117.18 1117.18 1151.46 1294.18 1294.30 1329.27 1329.27 1367.60 1367.60
 1413.03 1426.47 1426.47 1554.14 1557.80 1577.82


--------------------------------------------------------------------------------
  K point     11 =   0.062500  0.187500  0.312500  Weight =    0.004
--------------------------------------------------------------------------------

  Frequencies (cm-1) [NB: Negative implies an imaginary mode]:

  416.57  480.25  628.63  850.19  881.66  970.78  987.88 1019.46 1020.75
 1096.75 1100.49 1140.06 1270.25 1313.19 1333.56 1395.23 1396.42 1419.40
 1420.00 1432.74 1473.73 1530.59 1537.04 1566.57


--------------------------------------------------------------------------------
  K point     12 =   0.062500  0.187500  0.437500  Weight =    0.004
--------------------------------------------------------------------------------

  Frequencies (cm-1) [NB: Negative implies an imaginary mode]:

  562.11  618.01  710.59  753.70  770.83  903.29  970.41  973.38 1043.33
 1070.24 1099.58 1121.72 1274.10 1292.87 1367.57 1392.47 1428.83 1437.88
 1452.63 1467.30 1497.19 1506.69 1514.27 1545.48


--------------------------------------------------------------------------------
  K point     13 =   0.062500  0.187500  0.562500  Weight =    0.004
--------------------------------------------------------------------------------

  Frequencies (cm-1) [NB: Negative implies an imaginary mode]:

  562.11  618.01  710.59  753.70  770.83  903.29  970.41  973.38 1043.33
 1070.24 1099.58 1121.72 1274.10 1292.87 1367.57 1392.47 1428.83 1437.88
 1452.63 1467.30 1497.19 1506.69 1514.27 1545.48


--------------------------------------------------------------------------------
  K point     14 =   0.062500  0.187500  0.687500  Weight =    0.004
--------------------------------------------------------------------------------

  Frequencies (cm-1) [NB: Negative implies an imaginary mode]:

  416.57  480.25  628.63  850.19  881.66  970.78  987.88 1019.46 1020.75
 1096.75 1100.49 1140.06 1270.25 1313.19 1333.56 1395.23 1396.42 1419.40
 1420.00 1432.74 1473.73 1530.59 1537.04 1566.57


--------------------------------------------------------------------------------
  K point     15 =   0.062500  0.187500  0.812500  Weight =    0.004
--------------------------------------------------------------------------------

  Frequencies (cm-1) [NB: Negative implies an imaginary mode]:

  298.05  352.16  485.24  970.11  970.11  998.04  998.04 1015.39 1114.68
 1117.18 1117.18 1151.46 1294.18 1294.30 1329.27 1329.27 1367.60 1367.60
 1413.03 1426.47 1426.47 1554.14 1557.80 1577.82


--------------------------------------------------------------------------------
  K point     16 =   0.062500  0.187500  0.937500  Weight =    0.004
--------------------------------------------------------------------------------

  Frequencies (cm-1) [NB: Negative implies an imaginary mode]:

  250.17  267.19  363.02  972.58  981.90 1051.42 1051.42 1088.60 1088.60
 1140.45 1180.68 1180.68 1258.04 1258.04 1332.11 1332.11 1337.04 1343.62
 1382.89 1382.89 1430.30 1568.02 1568.49 1580.69


--------------------------------------------------------------------------------
  K point     17 =   0.062500  0.312500  0.062500  Weight =    0.004
--------------------------------------------------------------------------------

  Frequencies (cm-1) [NB: Negative implies an imaginary mode]:

  410.57  422.30  537.90  854.41  860.04 1014.74 1052.32 1052.32 1105.56
 1105.56 1136.08 1136.08 1229.67 1229.67 1363.22 1363.22 1401.20 1401.20
 1403.59 1408.07 1484.52 1544.91 1545.08 1570.49


--------------------------------------------------------------------------------
  K point     18 =   0.062500  0.312500  0.187500  Weight =    0.004
--------------------------------------------------------------------------------

  Frequencies (cm-1) [NB: Negative implies an imaginary mode]:

  416.57  480.25  628.63  850.19  881.66  970.78  987.88 1019.46 1020.75
 1096.75 1100.49 1140.06 1270.25 1313.19 1333.56 1395.23 1396.42 1419.40
 1420.00 1432.74 1473.73 1530.59 1537.04 1566.57


--------------------------------------------------------------------------------
  K point     19 =   0.062500  0.312500  0.312500  Weight =    0.004
--------------------------------------------------------------------------------

  Frequencies (cm-1) [NB: Negative implies an imaginary mode]:

  478.20  579.76  739.76  847.41  847.41  922.12  922.12  928.30 1034.07
 1034.07 1065.58 1125.52 1320.51 1331.27 1382.25 1382.25 1436.51 1436.51
 1452.13 1452.13 1452.40 1506.77 1521.36 1553.49


--------------------------------------------------------------------------------
  K point     20 =   0.062500  0.312500  0.437500  Weight =    0.004
--------------------------------------------------------------------------------

  Frequencies (cm-1) [NB: Negative implies an imaginary mode]:

  585.48  695.21  714.26  812.27  849.92  856.08  882.77  949.94  973.04
 1023.39 1056.46 1089.40 1341.71 1362.93 1376.28 1419.10 1434.99 1451.95
 1458.39 1470.31 1475.29 1493.05 1498.66 1528.84


--------------------------------------------------------------------------------
  K point     21 =   0.062500  0.312500  0.562500  Weight =    0.004
--------------------------------------------------------------------------------

  Frequencies (cm-1) [NB: Negative implies an imaginary mode]:

  585.48  695.21  714.26  812.27  849.92  856.08  882.77  949.94  973.04
 1023.39 1056.46 1089.40 1341.71 1362.93 1376.28 1419.10 1434.99 1451.95
 1458.39 1470.31 1475.29 1493.05 1498.66 1528.84


--------------------------------------------------------------------------------
  K point     22 =   0.062500  0.312500  0.687500  Weight =    0.004
--------------------------------------------------------------------------------

  Frequencies (cm-1) [NB: Negative implies an imaginary mode]:

  478.20  579.76  739.76  847.41  847.41  922.12  922.12  928.30 1034.07
 1034.07 1065.58 1125.52 1320.51 1331.27 1382.25 1382.25 1436.51 1436.51
 1452.13 1452.13 1452.40 1506.77 1521.36 1553.49


--------------------------------------------------------------------------------
  K point     23 =   0.062500  0.312500  0.812500  Weight =    0.004
--------------------------------------------------------------------------------

  Frequencies (cm-1) [NB: Negative implies an imaginary mode]:

  416.57  480.25  628.63  850.19  881.66  970.78  987.88 1019.46 1020.75
 1096.75 1100.49 1140.06 1270.25 1313.19 1333.56 1395.23 1396.42 1419.40
 1420.00 1432.74 1473.73 1530.59 1537.04 1566.57


--------------------------------------------------------------------------------
  K point     24 =   0.062500  0.312500  0.937500  Weight =    0.004
--------------------------------------------------------------------------------

  Frequencies (cm-1) [NB: Negative implies an imaginary mode]:

  410.57  422.30  537.90  854.41  860.04 1014.74 1052.32 1052.32 1105.56
 1105.56 1136.08 1136.08 1229.67 1229.67 1363.22 1363.22 1401.20 1401.20
 1403.59 1408.07 1484.52 1544.91 1545.08 1570.49


--------------------------------------------------------------------------------
  K point     25 =   0.062500  0.437500  0.062500  Weight =    0.004
--------------------------------------------------------------------------------

  Frequencies (cm-1) [NB: Negative implies an imaginary mode]:

  570.14  574.95  709.01  720.17  721.25  869.47 1062.06 1062.06 1097.90
 1097.90 1123.28 1123.28 1209.25 1209.25 1380.36 1380.36 1411.14 1411.14
 1462.06 1464.96 1509.41 1510.80 1524.64 1552.52


--------------------------------------------------------------------------------
  K point     26 =   0.062500  0.437500  0.187500  Weight =    0.004
--------------------------------------------------------------------------------

  Frequencies (cm-1) [NB: Negative implies an imaginary mode]:

  562.11  618.01  710.59  753.70  770.83  903.29  970.41  973.38 1043.33
 1070.24 1099.58 1121.72 1274.10 1292.87 1367.57 1392.47 1428.83 1437.88
 1452.63 1467.30 1497.19 1506.69 1514.27 1545.48


--------------------------------------------------------------------------------
  K point     27 =   0.062500  0.437500  0.312500  Weight =    0.004
--------------------------------------------------------------------------------

  Frequencies (cm-1) [NB: Negative implies an imaginary mode]:

  585.48  695.21  714.26  812.27  849.92  856.08  882.77  949.94  973.04
 1023.39 1056.46 1089.40 1341.71 1362.93 1376.28 1419.10 1434.99 1451.95
 1458.39 1470.31 1475.29 1493.05 1498.66 1528.84


--------------------------------------------------------------------------------
  K point     28 =   0.062500  0.437500  0.437500  Weight =    0.004
--------------------------------------------------------------------------------

  Frequencies (cm-1) [NB: Negative implies an imaginary mode]:

  649.87  744.86  744.86  788.80  803.27  885.06  885.06  928.20  959.43
  998.31  998.31 1045.33 1384.78 1411.68 1411.68 1413.00 1446.76 1456.88
 1456.88 1469.96 1474.35 1474.35 1485.11 1501.67


--------------------------------------------------------------------------------
  K point     29 =   0.062500  0.437500  0.562500  Weight =    0.004
--------------------------------------------------------------------------------

  Frequencies (cm-1) [NB: Negative implies an imaginary mode]:

  649.87  744.86  744.86  788.80  803.27  885.06  885.06  928.20  959.43
  998.31  998.31 1045.33 1384.78 1411.68 1411.68 1413.00 1446.76 1456.88
 1456.88 1469.96 1474.35 1474.35 1485.11 1501.67


--------------------------------------------------------------------------------
  K point     30 =   0.062500  0.437500  0.687500  Weight =    0.004
--------------------------------------------------------------------------------

  Frequencies (cm-1) [NB: Negative implies an imaginary mode]:

  585.48  695.21  714.26  812.27  849.92  856.08  882.77  949.94  973.04
 1023.39 1056.46 1089.40 1341.71 1362.93 1376.28 1419.10 1434.99 1451.95
 1458.39 1470.31 1475.29 1493.05 1498.66 1528.84


--------------------------------------------------------------------------------
  K point     31 =   0.062500  0.437500  0.812500  Weight =    0.004
--------------------------------------------------------------------------------

  Frequencies (cm-1) [NB: Negative implies an imaginary mode]:

  562.11  618.01  710.59  753.70  770.83  903.29  970.41  973.38 1043.33
 1070.24 1099.58 1121.72 1274.10 1292.87 1367.57 1392.47 1428.83 1437.88
 1452.63 1467.30 1497.19 1506.69 1514.27 1545.48


--------------------------------------------------------------------------------
  K point     32 =   0.062500  0.437500  0.937500  Weight =    0.004
--------------------------------------------------------------------------------

  Frequencies (cm-1) [NB: Negative implies an imaginary mode]:

  570.14  574.95  709.01  720.17  721.25  869.47 1062.06 1062.06 1097.90
 1097.90 1123.28 1123.28 1209.25 1209.25 1380.36 1380.36 1411.14 1411.14
 1462.06 1464.96 1509.41 1510.80 1524.64 1552.52


--------------------------------------------------------------------------------
  K point     33 =   0.062500  0.562500  0.062500  Weight =    0.004
--------------------------------------------------------------------------------

  Frequencies (cm-1) [NB: Negative implies an imaginary mode]:

  570.14  574.95  709.01  720.17  721.25  869.47 1062.06 1062.06 1097.90
 1097.90 1123.28 1123.28 1209.25 1209.25 1380.36 1380.36 1411.14 1411.14
 1462.06 1464.96 1509.41 1510.80 1524.64 1552.52


--------------------------------------------------------------------------------
  K point     34 =   0.062500  0.562500  0.187500  Weight =    0.004
--------------------------------------------------------------------------------

  Frequencies (cm-1) [NB: Negative implies an imaginary mode]:

  562.11  618.01  710.59  753.70  770.83  903.29  970.41  973.38 1043.33
 1070.24 1099.58 1121.72 1274.10 1292.87 1367.57 1392.47 1428.83 1437.88
 1452.63 1467.30 1497.19 1506.69 1514.27 1545.48


--------------------------------------------------------------------------------
  K point     35 =   0.062500  0.562500  0.312500  Weight =    0.004
--------------------------------------------------------------------------------

  Frequencies (cm-1) [NB: Negative implies an imaginary mode]:

  585.48  695.21  714.26  812.27  849.92  856.08  882.77  949.94  973.04
 1023.39 1056.46 1089.40 1341.71 1362.93 1376.28 1419.10 1434.99 1451.95
 1458.39 1470.31 1475.29 1493.05 1498.66 1528.84


--------------------------------------------------------------------------------
  K point     36 =   0.062500  0.562500  0.437500  Weight =    0.004
--------------------------------------------------------------------------------

  Frequencies (cm-1) [NB: Negative implies an imaginary mode]:

  649.87  744.86  744.86  788.80  803.27  885.06  885.06  928.20  959.43
  998.31  998.31 1045.33 1384.78 1411.68 1411.68 1413.00 1446.76 1456.88
 1456.88 1469.96 1474.35 1474.35 1485.11 1501.67


--------------------------------------------------------------------------------
  K point     37 =   0.062500  0.562500  0.562500  Weight =    0.004
--------------------------------------------------------------------------------

  Frequencies (cm-1) [NB: Negative implies an imaginary mode]:

  649.87  744.86  744.86  788.80  803.27  885.06  885.06  928.20  959.43
  998.31  998.31 1045.33 1384.78 1411.68 1411.68 1413.00 1446.76 1456.88
 1456.88 1469.96 1474.35 1474.35 1485.11 1501.67


--------------------------------------------------------------------------------
  K point     38 =   0.062500  0.562500  0.687500  Weight =    0.004
--------------------------------------------------------------------------------

  Frequencies (cm-1) [NB: Negative implies an imaginary mode]:

  585.48  695.21  714.26  812.27  849.92  856.08  882.77  949.94  973.04
 1023.39 1056.46 1089.40 1341.71 1362.93 1376.28 1419.10 1434.99 1451.95
 1458.39 1470.31 1475.29 1493.05 1498.66 1528.84


--------------------------------------------------------------------------------
  K point     39 =   0.062500  0.562500  0.812500  Weight =    0.004
--------------------------------------------------------------------------------

  Frequencies (cm-1) [NB: Negative implies an imaginary mode]:

  562.11  618.01  710.59  753.70  770.83  903.29  970.41  973.38 1043.33
 1070.24 1099.58 1121.72 1274.10 1292.87 1367.57 1392.47 1428.83 1437.88
 1452.63 1467.30 1497.19 1506.69 1514.27 1545.48


--------------------------------------------------------------------------------
  K point     40 =   0.062500  0.562500  0.937500  Weight =    0.004
--------------------------------------------------------------------------------

  Frequencies (cm-1) [NB: Negative implies an imaginary mode]:

  570.14  574.95  709.01  720.17  721.25  869.47 1062.06 1062.06 1097.90
 1097.90 1123.28 1123.28 1209.25 1209.25 1380.36 1380.36 1411.14 1411.14
 1462.06 1464.96 1509.41 1510.80 1524.64 1552.52


--------------------------------------------------------------------------------
  K point     41 =   0.062500  0.687500  0.062500  Weight =    0.004
--------------------------------------------------------------------------------

  Frequencies (cm-1) [NB: Negative implies an imaginary mode]:

  410.57  422.30  537.90  854.41  860.04 1014.74 1052.32 1052.32 1105.56
 1105.56 1136.08 1136.08 1229.67 1229.67 1363.22 1363.22 1401.20 1401.20
 1403.59 1408.07 1484.52 1544.91 1545.08 1570.49


--------------------------------------------------------------------------------
  K point     42 =   0.062500  0.687500  0.187500  Weight =    0.004
--------------------------------------------------------------------------------

  Frequencies (cm-1) [NB: Negative implies an imaginary mode]:

  416.57  480.25  628.63  850.19  881.66  970.78  987.88 1019.46 1020.75
 1096.75 1100.49 1140.06 1270.25 1313.19 1333.56 1395.23 1396.42 1419.40
 1420.00 1432.74 1473.73 1530.59 1537.04 1566.57


--------------------------------------------------------------------------------
  K point     43 =   0.062500  0.687500  0.312500  Weight =    0.004
--------------------------------------------------------------------------------

  Frequencies (cm-1) [NB: Negative implies an imaginary mode]:

  478.20  579.76  739.76  847.41  847.41  922.12  922.12  928.30 1034.07
 1034.07 1065.58 1125.52 1320.51 1331.27 1382.25 1382.25 1436.51 1436.51
 1452.13 1452.13 1452.40 1506.77 1521.36 1553.49


--------------------------------------------------------------------------------
  K point     44 =   0.062500  0.687500  0.437500  Weight =    0.004
--------------------------------------------------------------------------------

  Frequencies (cm-1) [NB: Negative implies an imaginary mode]:

  585.48  695.21  714.26  812.27  849.92  856.08  882.77  949.94  973.04
 1023.39 1056.46 1089.40 1341.71 1362.93 1376.28 1419.10 1434.99 1451.95
 1458.39 1470.31 1475.29 1493.05 1498.66 1528.84


--------------------------------------------------------------------------------
  K point     45 =   0.062500  0.687500  0.562500  Weight =    0.004
--------------------------------------------------------------------------------

  Frequencies (cm-1) [NB: Negative implies an imaginary mode]:

  585.48  695.21  714.26  812.27  849.92  856.08  882.77  949.94  973.04
 1023.39 1056.46 1089.40 1341.71 1362.93 1376.28 1419.10 1434.99 1451.95
 1458.39 1470.31 1475.29 1493.05 1498.66 1528.84


--------------------------------------------------------------------------------
  K point     46 =   0.062500  0.687500  0.687500  Weight =    0.004
--------------------------------------------------------------------------------

  Frequencies (cm-1) [NB: Negative implies an imaginary mode]:

  478.20  579.76  739.76  847.41  847.41  922.12  922.12  928.30 1034.07
 1034.07 1065.58 1125.52 1320.51 1331.27 1382.25 1382.25 1436.51 1436.51
 1452.13 1452.13 1452.40 1506.77 1521.36 1553.49


--------------------------------------------------------------------------------
  K point     47 =   0.062500  0.687500  0.812500  Weight =    0.004
--------------------------------------------------------------------------------

  Frequencies (cm-1) [NB: Negative implies an imaginary mode]:

  416.57  480.25  628.63  850.19  881.66  970.78  987.88 1019.46 1020.75
 1096.75 1100.49 1140.06 1270.25 1313.19 1333.56 1395.23 1396.42 1419.40
 1420.00 1432.74 1473.73 1530.59 1537.04 1566.57


--------------------------------------------------------------------------------
  K point     48 =   0.062500  0.687500  0.937500  Weight =    0.004
--------------------------------------------------------------------------------

  Frequencies (cm-1) [NB: Negative implies an imaginary mode]:

  410.57  422.30  537.90  854.41  860.04 1014.74 1052.32 1052.32 1105.56
 1105.56 1136.08 1136.08 1229.67 1229.67 1363.22 1363.22 1401.20 1401.20
 1403.59 1408.07 1484.52 1544.91 1545.08 1570.49


--------------------------------------------------------------------------------
  K point     49 =   0.062500  0.812500  0.062500  Weight =    0.004
--------------------------------------------------------------------------------

  Frequencies (cm-1) [NB: Negative implies an imaginary mode]:

  250.17  267.19  363.02  972.58  981.90 1051.42 1051.42 1088.60 1088.60
 1140.45 1180.68 1180.68 1258.04 1258.04 1332.11 1332.11 1337.04 1343.62
 1382.89 1382.89 1430.30 1568.02 1568.49 1580.69


--------------------------------------------------------------------------------
  K point     50 =   0.062500  0.812500  0.187500  Weight =    0.004
--------------------------------------------------------------------------------

  Frequencies (cm-1) [NB: Negative implies an imaginary mode]:

  298.05  352.16  485.24  970.11  970.11  998.04  998.04 1015.39 1114.68
 1117.18 1117.18 1151.46 1294.18 1294.30 1329.27 1329.27 1367.60 1367.60
 1413.03 1426.47 1426.47 1554.14 1557.80 1577.82


--------------------------------------------------------------------------------
  K point     51 =   0.062500  0.812500  0.312500  Weight =    0.004
--------------------------------------------------------------------------------

  Frequencies (cm-1) [NB: Negative implies an imaginary mode]:

  416.57  480.25  628.63  850.19  881.66  970.78  987.88 1019.46 1020.75
 1096.75 1100.49 1140.06 1270.25 1313.19 1333.56 1395.23 1396.42 1419.40
 1420.00 1432.74 1473.73 1530.59 1537.04 1566.57


--------------------------------------------------------------------------------
  K point     52 =   0.062500  0.812500  0.437500  Weight =    0.004
--------------------------------------------------------------------------------

  Frequencies (cm-1) [NB: Negative implies an imaginary mode]:

  562.11  618.01  710.59  753.70  770.83  903.29  970.41  973.38 1043.33
 1070.24 1099.58 1121.72 1274.10 1292.87 1367.57 1392.47 1428.83 1437.88
 1452.63 1467.30 1497.19 1506.69 1514.27 1545.48


--------------------------------------------------------------------------------
  K point     53 =   0.062500  0.812500  0.562500  Weight =    0.004
--------------------------------------------------------------------------------

  Frequencies (cm-1) [NB: Negative implies an imaginary mode]:

  562.11  618.01  710.59  753.70  770.83  903.29  970.41  973.38 1043.33
 1070.24 1099.58 1121.72 1274.10 1292.87 1367.57 1392.47 1428.83 1437.88
 1452.63 1467.30 1497.19 1506.69 1514.27 1545.48


--------------------------------------------------------------------------------
  K point     54 =   0.062500  0.812500  0.687500  Weight =    0.004
--------------------------------------------------------------------------------

  Frequencies (cm-1) [NB: Negative implies an imaginary mode]:

  416.57  480.25  628.63  850.19  881.66  970.78  987.88 1019.46 1020.75
 1096.75 1100.49 1140.06 1270.25 1313.19 1333.56 1395.23 1396.42 1419.40
 1420.00 1432.74 1473.73 1530.59 1537.04 1566.57


--------------------------------------------------------------------------------
  K point     55 =   0.062500  0.812500  0.812500  Weight =    0.004
--------------------------------------------------------------------------------

  Frequencies (cm-1) [NB: Negative implies an imaginary mode]:

  298.05  352.16  485.24  970.11  970.11  998.04  998.04 1015.39 1114.68
 1117.18 1117.18 1151.46 1294.18 1294.30 1329.27 1329.27 1367.60 1367.60
 1413.03 1426.47 1426.47 1554.14 1557.80 1577.82


--------------------------------------------------------------------------------
  K point     56 =   0.062500  0.812500  0.937500  Weight =    0.004
--------------------------------------------------------------------------------

  Frequencies (cm-1) [NB: Negative implies an imaginary mode]:

  250.17  267.19  363.02  972.58  981.90 1051.42 1051.42 1088.60 1088.60
 1140.45 1180.68 1180.68 1258.04 1258.04 1332.11 1332.11 1337.04 1343.62
 1382.89 1382.89 1430.30 1568.02 1568.49 1580.69


--------------------------------------------------------------------------------
  K point     57 =   0.062500  0.937500  0.062500  Weight =    0.004
--------------------------------------------------------------------------------

  Frequencies (cm-1) [NB: Negative implies an imaginary mode]:

  127.45  127.45  202.60 1058.78 1058.78 1058.78 1071.95 1071.95 1071.95
 1227.92 1227.92 1227.92 1277.00 1277.00 1277.00 1298.65 1298.65 1298.65
 1363.46 1363.46 1363.46 1580.24 1580.24 1584.49


--------------------------------------------------------------------------------
  K point     58 =   0.062500  0.937500  0.187500  Weight =    0.004
--------------------------------------------------------------------------------

  Frequencies (cm-1) [NB: Negative implies an imaginary mode]:

  250.17  267.19  363.02  972.58  981.90 1051.42 1051.42 1088.60 1088.60
 1140.45 1180.68 1180.68 1258.04 1258.04 1332.11 1332.11 1337.04 1343.62
 1382.89 1382.89 1430.30 1568.02 1568.49 1580.69


--------------------------------------------------------------------------------
  K point     59 =   0.062500  0.937500  0.312500  Weight =    0.004
--------------------------------------------------------------------------------

  Frequencies (cm-1) [NB: Negative implies an imaginary mode]:

  410.57  422.30  537.90  854.41  860.04 1014.74 1052.32 1052.32 1105.56
 1105.56 1136.08 1136.08 1229.67 1229.67 1363.22 1363.22 1401.20 1401.20
 1403.59 1408.07 1484.52 1544.91 1545.08 1570.49


--------------------------------------------------------------------------------
  K point     60 =   0.062500  0.937500  0.437500  Weight =    0.004
--------------------------------------------------------------------------------

  Frequencies (cm-1) [NB: Negative implies an imaginary mode]:

  570.14  574.95  709.01  720.17  721.25  869.47 1062.06 1062.06 1097.90
 1097.90 1123.28 1123.28 1209.25 1209.25 1380.36 1380.36 1411.14 1411.14
 1462.06 1464.96 1509.41 1510.80 1524.64 1552.52


--------------------------------------------------------------------------------
  K point     61 =   0.062500  0.937500  0.562500  Weight =    0.004
--------------------------------------------------------------------------------

  Frequencies (cm-1) [NB: Negative implies an imaginary mode]:

  570.14  574.95  709.01  720.17  721.25  869.47 1062.06 1062.06 1097.90
 1097.90 1123.28 1123.28 1209.25 1209.25 1380.36 1380.36 1411.14 1411.14
 1462.06 1464.96 1509.41 1510.80 1524.64 1552.52


--------------------------------------------------------------------------------
  K point     62 =   0.062500  0.937500  0.687500  Weight =    0.004
--------------------------------------------------------------------------------

  Frequencies (cm-1) [NB: Negative implies an imaginary mode]:

  410.57  422.30  537.90  854.41  860.04 1014.74 1052.32 1052.32 1105.56
 1105.56 1136.08 1136.08 1229.67 1229.67 1363.22 1363.22 1401.20 1401.20
 1403.59 1408.07 1484.52 1544.91 1545.08 1570.49


--------------------------------------------------------------------------------
  K point     63 =   0.062500  0.937500  0.812500  Weight =    0.004
--------------------------------------------------------------------------------

  Frequencies (cm-1) [NB: Negative implies an imaginary mode]:

  250.17  267.19  363.02  972.58  981.90 1051.42 1051.42 1088.60 1088.60
 1140.45 1180.68 1180.68 1258.04 1258.04 1332.11 1332.11 1337.04 1343.62
 1382.89 1382.89 1430.30 1568.02 1568.49 1580.69


--------------------------------------------------------------------------------
  K point     64 =   0.062500  0.937500  0.937500  Weight =    0.004
--------------------------------------------------------------------------------

  Frequencies (cm-1) [NB: Negative implies an imaginary mode]:

  127.45  127.45  202.60 1058.78 1058.78 1058.78 1071.95 1071.95 1071.95
 1227.92 1227.92 1227.92 1277.00 1277.00 1277.00 1298.65 1298.65 1298.65
 1363.46 1363.46 1363.46 1580.24 1580.24 1584.49


--------------------------------------------------------------------------------
  K point     65 =   0.187500  0.062500  0.062500  Weight =    0.004
--------------------------------------------------------------------------------

  Frequencies (cm-1) [NB: Negative implies an imaginary mode]:

  250.17  267.19  363.02  972.58  981.90 1051.42 1051.42 1088.60 1088.60
 1140.45 1180.68 1180.68 1258.04 1258.04 1332.11 1332.11 1337.04 1343.62
 1382.89 1382.89 1430.30 1568.02 1568.49 1580.69


--------------------------------------------------------------------------------
  K point     66 =   0.187500  0.062500  0.187500  Weight =    0.004
--------------------------------------------------------------------------------

  Frequencies (cm-1) [NB: Negative implies an imaginary mode]:

  298.05  352.16  485.24  970.11  970.11  998.04  998.04 1015.39 1114.68
 1117.18 1117.18 1151.46 1294.18 1294.30 1329.27 1329.27 1367.60 1367.60
 1413.03 1426.47 1426.47 1554.14 1557.80 1577.82


--------------------------------------------------------------------------------
  K point     67 =   0.187500  0.062500  0.312500  Weight =    0.004
--------------------------------------------------------------------------------

  Frequencies (cm-1) [NB: Negative implies an imaginary mode]:

  416.57  480.25  628.63  850.19  881.66  970.78  987.88 1019.46 1020.75
 1096.75 1100.49 1140.06 1270.25 1313.19 1333.56 1395.23 1396.42 1419.40
 1420.00 1432.74 1473.73 1530.59 1537.04 1566.57


--------------------------------------------------------------------------------
  K point     68 =   0.187500  0.062500  0.437500  Weight =    0.004
--------------------------------------------------------------------------------

  Frequencies (cm-1) [NB: Negative implies an imaginary mode]:

  562.11  618.01  710.59  753.70  770.83  903.29  970.41  973.38 1043.33
 1070.24 1099.58 1121.72 1274.10 1292.87 1367.57 1392.47 1428.83 1437.88
 1452.63 1467.30 1497.19 1506.69 1514.27 1545.48


--------------------------------------------------------------------------------
  K point     69 =   0.187500  0.062500  0.562500  Weight =    0.004
--------------------------------------------------------------------------------

  Frequencies (cm-1) [NB: Negative implies an imaginary mode]:

  562.11  618.01  710.59  753.70  770.83  903.29  970.41  973.38 1043.33
 1070.24 1099.58 1121.72 1274.10 1292.87 1367.57 1392.47 1428.83 1437.88
 1452.63 1467.30 1497.19 1506.69 1514.27 1545.48


--------------------------------------------------------------------------------
  K point     70 =   0.187500  0.062500  0.687500  Weight =    0.004
--------------------------------------------------------------------------------

  Frequencies (cm-1) [NB: Negative implies an imaginary mode]:

  416.57  480.25  628.63  850.19  881.66  970.78  987.88 1019.46 1020.75
 1096.75 1100.49 1140.06 1270.25 1313.19 1333.56 1395.23 1396.42 1419.40
 1420.00 1432.74 1473.73 1530.59 1537.04 1566.57


--------------------------------------------------------------------------------
  K point     71 =   0.187500  0.062500  0.812500  Weight =    0.004
--------------------------------------------------------------------------------

  Frequencies (cm-1) [NB: Negative implies an imaginary mode]:

  298.05  352.16  485.24  970.11  970.11  998.04  998.04 1015.39 1114.68
 1117.18 1117.18 1151.46 1294.18 1294.30 1329.27 1329.27 1367.60 1367.60
 1413.03 1426.47 1426.47 1554.14 1557.80 1577.82


--------------------------------------------------------------------------------
  K point     72 =   0.187500  0.062500  0.937500  Weight =    0.004
--------------------------------------------------------------------------------

  Frequencies (cm-1) [NB: Negative implies an imaginary mode]:

  250.17  267.19  363.02  972.58  981.90 1051.42 1051.42 1088.60 1088.60
 1140.45 1180.68 1180.68 1258.04 1258.04 1332.11 1332.11 1337.04 1343.62
 1382.89 1382.89 1430.30 1568.02 1568.49 1580.69


--------------------------------------------------------------------------------
  K point     73 =   0.187500  0.187500  0.062500  Weight =    0.004
--------------------------------------------------------------------------------

  Frequencies (cm-1) [NB: Negative implies an imaginary mode]:

  298.05  352.16  485.24  970.11  970.11  998.04  998.04 1015.39 1114.68
 1117.18 1117.18 1151.46 1294.18 1294.30 1329.27 1329.27 1367.60 1367.60
 1413.03 1426.47 1426.47 1554.14 1557.80 1577.82


--------------------------------------------------------------------------------
  K point     74 =   0.187500  0.187500  0.187500  Weight =    0.004
--------------------------------------------------------------------------------

  Frequencies (cm-1) [NB: Negative implies an imaginary mode]:

  371.68  371.68  587.60  948.41  948.41  948.41 1009.05 1009.05 1009.05
 1113.35 1113.35 1113.35 1338.42 1338.42 1338.42 1362.80 1362.80 1362.80
 1432.33 1432.33 1432.33 1543.19 1543.19 1576.16


--------------------------------------------------------------------------------
  K point     75 =   0.187500  0.187500  0.312500  Weight =    0.004
--------------------------------------------------------------------------------

  Frequencies (cm-1) [NB: Negative implies an imaginary mode]:

  459.96  483.36  713.12  848.04  876.93  932.60  932.60 1002.40 1002.40
 1042.86 1118.93 1118.93 1331.14 1331.14 1376.02 1376.02 1394.01 1423.31
 1437.17 1437.17 1465.79 1521.30 1521.38 1565.26


--------------------------------------------------------------------------------
  K point     76 =   0.187500  0.187500  0.437500  Weight =    0.004
--------------------------------------------------------------------------------

  Frequencies (cm-1) [NB: Negative implies an imaginary mode]:

  589.75  607.56  731.68  733.82  836.95  925.42  925.42  948.89  991.10
  991.10 1127.57 1127.57 1321.58 1321.58 1389.71 1389.71 1438.54 1438.54
 1445.67 1464.04 1488.62 1494.99 1507.12 1542.29


--------------------------------------------------------------------------------
  K point     77 =   0.187500  0.187500  0.562500  Weight =    0.004
--------------------------------------------------------------------------------

  Frequencies (cm-1) [NB: Negative implies an imaginary mode]:

  589.75  607.56  731.68  733.82  836.95  925.42  925.42  948.89  991.10
  991.10 1127.57 1127.57 1321.58 1321.58 1389.71 1389.71 1438.54 1438.54
 1445.67 1464.04 1488.62 1494.99 1507.12 1542.29


--------------------------------------------------------------------------------
  K point     78 =   0.187500  0.187500  0.687500  Weight =    0.004
--------------------------------------------------------------------------------

  Frequencies (cm-1) [NB: Negative implies an imaginary mode]:

  459.96  483.36  713.12  848.04  876.93  932.60  932.60 1002.40 1002.40
 1042.86 1118.93 1118.93 1331.14 1331.14 1376.02 1376.02 1394.01 1423.31
 1437.17 1437.17 1465.79 1521.30 1521.38 1565.26


--------------------------------------------------------------------------------
  K point     79 =   0.187500  0.187500  0.812500  Weight =    0.004
--------------------------------------------------------------------------------

  Frequencies (cm-1) [NB: Negative implies an imaginary mode]:

  371.68  371.68  587.60  948.41  948.41  948.41 1009.05 1009.05 1009.05
 1113.35 1113.35 1113.35 1338.42 1338.42 1338.42 1362.80 1362.80 1362.80
 1432.33 1432.33 1432.33 1543.19 1543.19 1576.16


--------------------------------------------------------------------------------
  K point     80 =   0.187500  0.187500  0.937500  Weight =    0.004
--------------------------------------------------------------------------------

  Frequencies (cm-1) [NB: Negative implies an imaginary mode]:

  298.05  352.16  485.24  970.11  970.11  998.04  998.04 1015.39 1114.68
 1117.18 1117.18 1151.46 1294.18 1294.30 1329.27 1329.27 1367.60 1367.60
 1413.03 1426.47 1426.47 1554.14 1557.80 1577.82


--------------------------------------------------------------------------------
  K point     81 =   0.187500  0.312500  0.062500  Weight =    0.004
--------------------------------------------------------------------------------

  Frequencies (cm-1) [NB: Negative implies an imaginary mode]:

  416.57  480.25  628.63  850.19  881.66  970.78  987.88 1019.46 1020.75
 1096.75 1100.49 1140.06 1270.25 1313.19 1333.56 1395.23 1396.42 1419.40
 1420.00 1432.74 1473.73 1530.59 1537.04 1566.57


--------------------------------------------------------------------------------
  K point     82 =   0.187500  0.312500  0.187500  Weight =    0.004
--------------------------------------------------------------------------------

  Frequencies (cm-1) [NB: Negative implies an imaginary mode]:

  459.96  483.36  713.12  848.04  876.93  932.60  932.60 1002.40 1002.40
 1042.86 1118.93 1118.93 1331.14 1331.14 1376.02 1376.02 1394.01 1423.31
 1437.17 1437.17 1465.79 1521.30 1521.38 1565.26


--------------------------------------------------------------------------------
  K point     83 =   0.187500  0.312500  0.312500  Weight =    0.004
--------------------------------------------------------------------------------

  Frequencies (cm-1) [NB: Negative implies an imaginary mode]:

  515.20  560.17  817.93  840.14  840.14  886.68  886.68  889.65  972.39
 1074.41 1074.41 1133.55 1353.61 1371.24 1385.27 1385.27 1432.14 1432.14
 1447.64 1450.57 1450.57 1497.95 1503.66 1554.50


--------------------------------------------------------------------------------
  K point     84 =   0.187500  0.312500  0.437500  Weight =    0.004
--------------------------------------------------------------------------------

  Frequencies (cm-1) [NB: Negative implies an imaginary mode]:

  608.63  663.09  724.93  773.10  840.25  856.77  908.95  919.41  939.01
 1006.93 1105.53 1128.09 1361.14 1372.52 1397.08 1425.00 1431.18 1444.75
 1449.72 1459.12 1468.66 1480.99 1492.43 1530.55


--------------------------------------------------------------------------------
  K point     85 =   0.187500  0.312500  0.562500  Weight =    0.004
--------------------------------------------------------------------------------

  Frequencies (cm-1) [NB: Negative implies an imaginary mode]:

  608.63  663.09  724.93  773.10  840.25  856.77  908.95  919.41  939.01
 1006.93 1105.53 1128.09 1361.14 1372.52 1397.08 1425.00 1431.18 1444.75
 1449.72 1459.12 1468.66 1480.99 1492.43 1530.55


--------------------------------------------------------------------------------
  K point     86 =   0.187500  0.312500  0.687500  Weight =    0.004
--------------------------------------------------------------------------------

  Frequencies (cm-1) [NB: Negative implies an imaginary mode]:

  515.20  560.17  817.93  840.14  840.14  886.68  886.68  889.65  972.39
 1074.41 1074.41 1133.55 1353.61 1371.24 1385.27 1385.27 1432.14 1432.14
 1447.64 1450.57 1450.57 1497.95 1503.66 1554.50


--------------------------------------------------------------------------------
  K point     87 =   0.187500  0.312500  0.812500  Weight =    0.004
--------------------------------------------------------------------------------

  Frequencies (cm-1) [NB: Negative implies an imaginary mode]:

  459.96  483.36  713.12  848.04  876.93  932.60  932.60 1002.40 1002.40
 1042.86 1118.93 1118.93 1331.14 1331.14 1376.02 1376.02 1394.01 1423.31
 1437.17 1437.17 1465.79 1521.30 1521.38 1565.26


--------------------------------------------------------------------------------
  K point     88 =   0.187500  0.312500  0.937500  Weight =    0.004
--------------------------------------------------------------------------------

  Frequencies (cm-1) [NB: Negative implies an imaginary mode]:

  416.57  480.25  628.63  850.19  881.66  970.78  987.88 1019.46 1020.75
 1096.75 1100.49 1140.06 1270.25 1313.19 1333.56 1395.23 1396.42 1419.40
 1420.00 1432.74 1473.73 1530.59 1537.04 1566.57


--------------------------------------------------------------------------------
  K point     89 =   0.187500  0.437500  0.062500  Weight =    0.004
--------------------------------------------------------------------------------

  Frequencies (cm-1) [NB: Negative implies an imaginary mode]:

  562.11  618.01  710.59  753.70  770.83  903.29  970.41  973.38 1043.33
 1070.24 1099.58 1121.72 1274.10 1292.87 1367.57 1392.47 1428.83 1437.88
 1452.63 1467.30 1497.19 1506.69 1514.27 1545.48


--------------------------------------------------------------------------------
  K point     90 =   0.187500  0.437500  0.187500  Weight =    0.004
--------------------------------------------------------------------------------

  Frequencies (cm-1) [NB: Negative implies an imaginary mode]:

  589.75  607.56  731.68  733.82  836.95  925.42  925.42  948.89  991.10
  991.10 1127.57 1127.57 1321.58 1321.58 1389.71 1389.71 1438.54 1438.54
 1445.67 1464.04 1488.62 1494.99 1507.12 1542.29


--------------------------------------------------------------------------------
  K point     91 =   0.187500  0.437500  0.312500  Weight =    0.004
--------------------------------------------------------------------------------

  Frequencies (cm-1) [NB: Negative implies an imaginary mode]:

  608.63  663.09  724.93  773.10  840.25  856.77  908.95  919.41  939.01
 1006.93 1105.53 1128.09 1361.14 1372.52 1397.08 1425.00 1431.18 1444.75
 1449.72 1459.12 1468.66 1480.99 1492.43 1530.55


--------------------------------------------------------------------------------
  K point     92 =   0.187500  0.437500  0.437500  Weight =    0.004
--------------------------------------------------------------------------------

  Frequencies (cm-1) [NB: Negative implies an imaginary mode]:

  661.51  741.06  744.47  744.47  791.29  825.37  825.37  882.72  997.46
 1061.30 1061.30 1103.89 1390.36 1411.91 1411.91 1422.57 1442.73 1448.23
 1448.23 1460.09 1464.73 1473.47 1473.47 1507.33


--------------------------------------------------------------------------------
  K point     93 =   0.187500  0.437500  0.562500  Weight =    0.004
--------------------------------------------------------------------------------

  Frequencies (cm-1) [NB: Negative implies an imaginary mode]:

  661.51  741.06  744.47  744.47  791.29  825.37  825.37  882.72  997.46
 1061.30 1061.30 1103.89 1390.36 1411.91 1411.91 1422.57 1442.73 1448.23
 1448.23 1460.09 1464.73 1473.47 1473.47 1507.33


--------------------------------------------------------------------------------
  K point     94 =   0.187500  0.437500  0.687500  Weight =    0.004
--------------------------------------------------------------------------------

  Frequencies (cm-1) [NB: Negative implies an imaginary mode]:

  608.63  663.09  724.93  773.10  840.25  856.77  908.95  919.41  939.01
 1006.93 1105.53 1128.09 1361.14 1372.52 1397.08 1425.00 1431.18 1444.75
 1449.72 1459.12 1468.66 1480.99 1492.43 1530.55


--------------------------------------------------------------------------------
  K point     95 =   0.187500  0.437500  0.812500  Weight =    0.004
--------------------------------------------------------------------------------

  Frequencies (cm-1) [NB: Negative implies an imaginary mode]:

  589.75  607.56  731.68  733.82  836.95  925.42  925.42  948.89  991.10
  991.10 1127.57 1127.57 1321.58 1321.58 1389.71 1389.71 1438.54 1438.54
 1445.67 1464.04 1488.62 1494.99 1507.12 1542.29


--------------------------------------------------------------------------------
  K point     96 =   0.187500  0.437500  0.937500  Weight =    0.004
--------------------------------------------------------------------------------

  Frequencies (cm-1) [NB: Negative implies an imaginary mode]:

  562.11  618.01  710.59  753.70  770.83  903.29  970.41  973.38 1043.33
 1070.24 1099.58 1121.72 1274.10 1292.87 1367.57 1392.47 1428.83 1437.88
 1452.63 1467.30 1497.19 1506.69 1514.27 1545.48


--------------------------------------------------------------------------------
  K point     97 =   0.187500  0.562500  0.062500  Weight =    0.004
--------------------------------------------------------------------------------

  Frequencies (cm-1) [NB: Negative implies an imaginary mode]:

  562.11  618.01  710.59  753.70  770.83  903.29  970.41  973.38 1043.33
 1070.24 1099.58 1121.72 1274.10 1292.87 1367.57 1392.47 1428.83 1437.88
 1452.63 1467.30 1497.19 1506.69 1514.27 1545.48


--------------------------------------------------------------------------------
  K point     98 =   0.187500  0.562500  0.187500  Weight =    0.004
--------------------------------------------------------------------------------

  Frequencies (cm-1) [NB: Negative implies an imaginary mode]:

  589.75  607.56  731.68  733.82  836.95  925.42  925.42  948.89  991.10
  991.10 1127.57 1127.57 1321.58 1321.58 1389.71 1389.71 1438.54 1438.54
 1445.67 1464.04 1488.62 1494.99 1507.12 1542.29


--------------------------------------------------------------------------------
  K point     99 =   0.187500  0.562500  0.312500  Weight =    0.004
--------------------------------------------------------------------------------

  Frequencies (cm-1) [NB: Negative implies an imaginary mode]:

  608.63  663.09  724.93  773.10  840.25  856.77  908.95  919.41  939.01
 1006.93 1105.53 1128.09 1361.14 1372.52 1397.08 1425.00 1431.18 1444.75
 1449.72 1459.12 1468.66 1480.99 1492.43 1530.55


--------------------------------------------------------------------------------
  K point    100 =   0.187500  0.562500  0.437500  Weight =    0.004
--------------------------------------------------------------------------------

  Frequencies (cm-1) [NB: Negative implies an imaginary mode]:

  661.51  741.06  744.47  744.47  791.29  825.37  825.37  882.72  997.46
 1061.30 1061.30 1103.89 1390.36 1411.91 1411.91 1422.57 1442.73 1448.23
 1448.23 1460.09 1464.73 1473.47 1473.47 1507.33


--------------------------------------------------------------------------------
  K point    101 =   0.187500  0.562500  0.562500  Weight =    0.004
--------------------------------------------------------------------------------

  Frequencies (cm-1) [NB: Negative implies an imaginary mode]:

  661.51  741.06  744.47  744.47  791.29  825.37  825.37  882.72  997.46
 1061.30 1061.30 1103.89 1390.36 1411.91 1411.91 1422.57 1442.73 1448.23
 1448.23 1460.09 1464.73 1473.47 1473.47 1507.33


--------------------------------------------------------------------------------
  K point    102 =   0.187500  0.562500  0.687500  Weight =    0.004
--------------------------------------------------------------------------------

  Frequencies (cm-1) [NB: Negative implies an imaginary mode]:

  608.63  663.09  724.93  773.10  840.25  856.77  908.95  919.41  939.01
 1006.93 1105.53 1128.09 1361.14 1372.52 1397.08 1425.00 1431.18 1444.75
 1449.72 1459.12 1468.66 1480.99 1492.43 1530.55


--------------------------------------------------------------------------------
  K point    103 =   0.187500  0.562500  0.812500  Weight =    0.004
--------------------------------------------------------------------------------

  Frequencies (cm-1) [NB: Negative implies an imaginary mode]:

  589.75  607.56  731.68  733.82  836.95  925.42  925.42  948.89  991.10
  991.10 1127.57 1127.57 1321.58 1321.58 1389.71 1389.71 1438.54 1438.54
 1445.67 1464.04 1488.62 1494.99 1507.12 1542.29


--------------------------------------------------------------------------------
  K point    104 =   0.187500  0.562500  0.937500  Weight =    0.004
--------------------------------------------------------------------------------

  Frequencies (cm-1) [NB: Negative implies an imaginary mode]:

  562.11  618.01  710.59  753.70  770.83  903.29  970.41  973.38 1043.33
 1070.24 1099.58 1121.72 1274.10 1292.87 1367.57 1392.47 1428.83 1437.88
 1452.63 1467.30 1497.19 1506.69 1514.27 1545.48


--------------------------------------------------------------------------------
  K point    105 =   0.187500  0.687500  0.062500  Weight =    0.004
--------------------------------------------------------------------------------

  Frequencies (cm-1) [NB: Negative implies an imaginary mode]:

  416.57  480.25  628.63  850.19  881.66  970.78  987.88 1019.46 1020.75
 1096.75 1100.49 1140.06 1270.25 1313.19 1333.56 1395.23 1396.42 1419.40
 1420.00 1432.74 1473.73 1530.59 1537.04 1566.57


--------------------------------------------------------------------------------
[...]
--------------------------------------------------------------------------------
  Zero point energy            =        1.718191 eV
  Entropy                      =        0.000001 eV/K
                               =        0.124643 J/(mol.K)
  Helmholtz free-energy        =      -57.238759 eV
                               =    -5522.664757 kJmol-1
  Free energy (equipartition)  =      -58.505549 eV
  - T*S       (equipartition)  =        0.306609 eV
  Uvib        (equipartition)  =        0.144771 eV
  Mean kinetic energy          =        0.859130 eV
  Heat capacity - const volume =        0.000004 eV/K
                               =        0.406881 J/(mol.K)
--------------------------------------------------------------------------------
  Phonon properties (per mole of unit cells): Temperature =     80.000 K
--------------------------------------------------------------------------------
  Zero point energy            =        1.718191 eV
  Entropy                      =        0.000002 eV/K
                               =        0.191984 J/(mol.K)
  Helmholtz free-energy        =      -57.238775 eV
                               =    -5522.666324 kJmol-1
  Free energy (equipartition)  =      -58.463160 eV
  - T*S       (equipartition)  =        0.328317 eV
  Uvib        (equipartition)  =        0.165453 eV
  Mean kinetic energy          =        0.859157 eV
  Heat capacity - const volume =        0.000006 eV/K
                               =        0.616660 J/(mol.K)
--------------------------------------------------------------------------------
  Phonon properties (per mole of unit cells): Temperature =     90.000 K
--------------------------------------------------------------------------------
  Zero point energy            =        1.718191 eV
  Entropy                      =        0.000003 eV/K
                               =        0.279922 J/(mol.K)
  Helmholtz free-energy        =      -57.238799 eV
                               =    -5522.668665 kJmol-1
  Free energy (equipartition)  =      -58.423362 eV
  - T*S       (equipartition)  =        0.347433 eV
  Uvib        (equipartition)  =        0.186134 eV
  Mean kinetic energy          =        0.859196 eV
  Heat capacity - const volume =        0.000009 eV/K
                               =        0.894439 J/(mol.K)
--------------------------------------------------------------------------------
  Phonon properties (per mole of unit cells): Temperature =    100.000 K
--------------------------------------------------------------------------------
  Zero point energy            =        1.718191 eV
  Entropy                      =        0.000004 eV/K
                               =        0.391980 J/(mol.K)
  Helmholtz free-energy        =      -57.238834 eV
                               =    -5522.672003 kJmol-1
  Free energy (equipartition)  =      -58.385867 eV
  - T*S       (equipartition)  =        0.364246 eV
  Uvib        (equipartition)  =        0.206816 eV
  Mean kinetic energy          =        0.859251 eV
  Heat capacity - const volume =        0.000013 eV/K
                               =        1.253747 J/(mol.K)
--------------------------------------------------------------------------------
  Phonon properties (per mole of unit cells): Temperature =    110.000 K
--------------------------------------------------------------------------------
  Zero point energy            =        1.718191 eV
  Entropy                      =        0.000006 eV/K
                               =        0.531996 J/(mol.K)
  Helmholtz free-energy        =      -57.238881 eV
                               =    -5522.676598 kJmol-1
  Free energy (equipartition)  =      -58.350444 eV
  - T*S       (equipartition)  =        0.378988 eV
  Uvib        (equipartition)  =        0.227498 eV
  Mean kinetic energy          =        0.859327 eV
  Heat capacity - const volume =        0.000018 eV/K
                               =        1.708702 J/(mol.K)
--------------------------------------------------------------------------------
  Phonon properties (per mole of unit cells): Temperature =    120.000 K
--------------------------------------------------------------------------------
  Zero point energy            =        1.718191 eV
  Entropy                      =        0.000007 eV/K
                               =        0.704028 J/(mol.K)
  Helmholtz free-energy        =      -57.238945 eV
                               =    -5522.682750 kJmol-1
  Free energy (equipartition)  =      -58.316903 eV
  - T*S       (equipartition)  =        0.391847 eV
  Uvib        (equipartition)  =        0.248179 eV
  Mean kinetic energy          =        0.859430 eV
  Heat capacity - const volume =        0.000024 eV/K
                               =        2.273006 J/(mol.K)
--------------------------------------------------------------------------------
  Phonon properties (per mole of unit cells): Temperature =    130.000 K
--------------------------------------------------------------------------------
  Zero point energy            =        1.718191 eV
  Entropy                      =        0.000009 eV/K
                               =        0.912204 J/(mol.K)
  Helmholtz free-energy        =      -57.239029 eV
                               =    -5522.690799 kJmol-1
  Free energy (equipartition)  =      -58.285088 eV
  - T*S       (equipartition)  =        0.402981 eV
  Uvib        (equipartition)  =        0.268861 eV
  Mean kinetic energy          =        0.859565 eV
  Heat capacity - const volume =        0.000031 eV/K
                               =        2.958965 J/(mol.K)
--------------------------------------------------------------------------------
  Phonon properties (per mole of unit cells): Temperature =    140.000 K
--------------------------------------------------------------------------------
  Zero point energy            =        1.718191 eV
  Entropy                      =        0.000012 eV/K
                               =        1.160575 J/(mol.K)
  Helmholtz free-energy        =      -57.239136 eV
                               =    -5522.701128 kJmol-1
  Free energy (equipartition)  =      -58.254865 eV
  - T*S       (equipartition)  =        0.412522 eV
  Uvib        (equipartition)  =        0.289542 eV
  Mean kinetic energy          =        0.859739 eV
  Heat capacity - const volume =        0.000039 eV/K
                               =        3.776774 J/(mol.K)
--------------------------------------------------------------------------------
  Phonon properties (per mole of unit cells): Temperature =    150.000 K
--------------------------------------------------------------------------------
  Zero point energy            =        1.718191 eV
  Entropy                      =        0.000015 eV/K
                               =        1.452972 J/(mol.K)
  Helmholtz free-energy        =      -57.239271 eV
                               =    -5522.714157 kJmol-1
  Free energy (equipartition)  =      -58.226121 eV
  - T*S       (equipartition)  =        0.420584 eV
  Uvib        (equipartition)  =        0.310224 eV
  Mean kinetic energy          =        0.859959 eV
  Heat capacity - const volume =        0.000049 eV/K
                               =        4.734125 J/(mol.K)
--------------------------------------------------------------------------------
  Phonon properties (per mole of unit cells): Temperature =    160.000 K
--------------------------------------------------------------------------------
  Zero point energy            =        1.718191 eV
  Entropy                      =        0.000019 eV/K
                               =        1.792896 J/(mol.K)
  Helmholtz free-energy        =      -57.239438 eV
                               =    -5522.730346 kJmol-1
  Free energy (equipartition)  =      -58.198757 eV
  - T*S       (equipartition)  =        0.427267 eV
  Uvib        (equipartition)  =        0.330906 eV
  Mean kinetic energy          =        0.860232 eV
  Heat capacity - const volume =        0.000060 eV/K
                               =        5.836112 J/(mol.K)
--------------------------------------------------------------------------------
  Phonon properties (per mole of unit cells): Temperature =    170.000 K
--------------------------------------------------------------------------------
  Zero point energy            =        1.718191 eV
  Entropy                      =        0.000023 eV/K
                               =        2.183445 J/(mol.K)
  Helmholtz free-energy        =      -57.239644 eV
                               =    -5522.750184 kJmol-1
  Free energy (equipartition)  =      -58.172686 eV
  - T*S       (equipartition)  =        0.432656 eV
  Uvib        (equipartition)  =        0.351587 eV
  Mean kinetic energy          =        0.860566 eV
  Heat capacity - const volume =        0.000073 eV/K
                               =        7.085320 J/(mol.K)
--------------------------------------------------------------------------------
  Phonon properties (per mole of unit cells): Temperature =    180.000 K
--------------------------------------------------------------------------------
  Zero point energy            =        1.718191 eV
  Entropy                      =        0.000027 eV/K
                               =        2.627268 J/(mol.K)
  Helmholtz free-energy        =      -57.239893 eV
                               =    -5522.774192 kJmol-1
  Free energy (equipartition)  =      -58.147832 eV
  - T*S       (equipartition)  =        0.436828 eV
  Uvib        (equipartition)  =        0.372269 eV
  Mean kinetic energy          =        0.860969 eV
  Heat capacity - const volume =        0.000088 eV/K
                               =        8.482032 J/(mol.K)
--------------------------------------------------------------------------------
  Phonon properties (per mole of unit cells): Temperature =    190.000 K
--------------------------------------------------------------------------------
  Zero point energy            =        1.718191 eV
  Entropy                      =        0.000032 eV/K
                               =        3.126540 J/(mol.K)
  Helmholtz free-energy        =      -57.240191 eV
                               =    -5522.802914 kJmol-1
  Free energy (equipartition)  =      -58.124128 eV
  - T*S       (equipartition)  =        0.439851 eV
  Uvib        (equipartition)  =        0.392951 eV
  Mean kinetic energy          =        0.861448 eV
  Heat capacity - const volume =        0.000104 eV/K
                               =       10.024482 J/(mol.K)
--------------------------------------------------------------------------------
  Phonon properties (per mole of unit cells): Temperature =    200.000 K
--------------------------------------------------------------------------------
  Zero point energy            =        1.718191 eV
  Entropy                      =        0.000038 eV/K
                               =        3.682966 J/(mol.K)
  Helmholtz free-energy        =      -57.240543 eV
                               =    -5522.836914 kJmol-1
  Free energy (equipartition)  =      -58.101513 eV
  - T*S       (equipartition)  =        0.441784 eV
  Uvib        (equipartition)  =        0.413632 eV
  Mean kinetic energy          =        0.862010 eV
  Heat capacity - const volume =        0.000121 eV/K
                               =       11.709114 J/(mol.K)
--------------------------------------------------------------------------------
  Phonon properties (per mole of unit cells): Temperature =    210.000 K
--------------------------------------------------------------------------------
  Zero point energy            =        1.718191 eV
  Entropy                      =        0.000045 eV/K
                               =        4.297790 J/(mol.K)
  Helmholtz free-energy        =      -57.240956 eV
                               =    -5522.876768 kJmol-1
  Free energy (equipartition)  =      -58.079932 eV
  - T*S       (equipartition)  =        0.442683 eV
  Uvib        (equipartition)  =        0.434314 eV
  Mean kinetic energy          =        0.862664 eV
  Heat capacity - const volume =        0.000140 eV/K
                               =       13.530830 J/(mol.K)
--------------------------------------------------------------------------------
  Phonon properties (per mole of unit cells): Temperature =    220.000 K
--------------------------------------------------------------------------------
  Zero point energy            =        1.718191 eV
  Entropy                      =        0.000052 eV/K
                               =        4.971813 J/(mol.K)
  Helmholtz free-energy        =      -57.241436 eV
                               =    -5522.923067 kJmol-1
  Free energy (equipartition)  =      -58.059337 eV
  - T*S       (equipartition)  =        0.442597 eV
  Uvib        (equipartition)  =        0.454995 eV
  Mean kinetic energy          =        0.863415 eV
  Heat capacity - const volume =        0.000160 eV/K
                               =       15.483228 J/(mol.K)
--------------------------------------------------------------------------------
  Phonon properties (per mole of unit cells): Temperature =    230.000 K
--------------------------------------------------------------------------------
  Zero point energy            =        1.718191 eV
  Entropy                      =        0.000059 eV/K
                               =        5.705418 J/(mol.K)
  Helmholtz free-energy        =      -57.241989 eV
                               =    -5522.976403 kJmol-1
  Free energy (equipartition)  =      -58.039682 eV
  - T*S       (equipartition)  =        0.441571 eV
  Uvib        (equipartition)  =        0.475677 eV
  Mean kinetic energy          =        0.864271 eV
  Heat capacity - const volume =        0.000182 eV/K
                               =       17.558820 J/(mol.K)
--------------------------------------------------------------------------------
  Phonon properties (per mole of unit cells): Temperature =    240.000 K
--------------------------------------------------------------------------------
  Zero point energy            =        1.718191 eV
  Entropy                      =        0.000067 eV/K
                               =        6.498604 J/(mol.K)
  Helmholtz free-energy        =      -57.242621 eV
                               =    -5523.037374 kJmol-1
  Free energy (equipartition)  =      -58.020926 eV
  - T*S       (equipartition)  =        0.439644 eV
  Uvib        (equipartition)  =        0.496359 eV
  Mean kinetic energy          =        0.865237 eV
  Heat capacity - const volume =        0.000205 eV/K
                               =       19.749242 J/(mol.K)
--------------------------------------------------------------------------------
  Phonon properties (per mole of unit cells): Temperature =    250.000 K
--------------------------------------------------------------------------------
  Zero point energy            =        1.718191 eV
  Entropy                      =        0.000076 eV/K
                               =        7.351013 J/(mol.K)
  Helmholtz free-energy        =      -57.243338 eV
                               =    -5523.106573 kJmol-1
  Free energy (equipartition)  =      -58.003033 eV
  - T*S       (equipartition)  =        0.436856 eV
  Uvib        (equipartition)  =        0.517040 eV
  Mean kinetic energy          =        0.866319 eV
  Heat capacity - const volume =        0.000228 eV/K
                               =       22.045449 J/(mol.K)
--------------------------------------------------------------------------------
  Phonon properties (per mole of unit cells): Temperature =    260.000 K
--------------------------------------------------------------------------------
  Zero point energy            =        1.718191 eV
  Entropy                      =        0.000086 eV/K
                               =        8.261963 J/(mol.K)
  Helmholtz free-energy        =      -57.244146 eV
                               =    -5523.184589 kJmol-1
  Free energy (equipartition)  =      -57.985967 eV
  - T*S       (equipartition)  =        0.433241 eV
  Uvib        (equipartition)  =        0.537722 eV
  Mean kinetic energy          =        0.867523 eV
  Heat capacity - const volume =        0.000253 eV/K
                               =       24.437901 J/(mol.K)
--------------------------------------------------------------------------------
  Phonon properties (per mole of unit cells): Temperature =    270.000 K
--------------------------------------------------------------------------------
  Zero point energy            =        1.718191 eV
  Entropy                      =        0.000096 eV/K
                               =        9.230483 J/(mol.K)
  Helmholtz free-energy        =      -57.245052 eV
                               =    -5523.272004 kJmol-1
  Free energy (equipartition)  =      -57.969696 eV
  - T*S       (equipartition)  =        0.428830 eV
  Uvib        (equipartition)  =        0.558403 eV
  Mean kinetic energy          =        0.868854 eV
  Heat capacity - const volume =        0.000279 eV/K
                               =       26.916740 J/(mol.K)
--------------------------------------------------------------------------------
  Phonon properties (per mole of unit cells): Temperature =    280.000 K
--------------------------------------------------------------------------------
  Zero point energy            =        1.718191 eV
  Entropy                      =        0.000106 eV/K
                               =       10.255347 J/(mol.K)
  Helmholtz free-energy        =      -57.246062 eV
                               =    -5523.369387 kJmol-1
  Free energy (equipartition)  =      -57.954192 eV
  - T*S       (equipartition)  =        0.423652 eV
  Uvib        (equipartition)  =        0.579085 eV
  Mean kinetic energy          =        0.870314 eV
  Heat capacity - const volume =        0.000305 eV/K
                               =       29.471951 J/(mol.K)
--------------------------------------------------------------------------------
  Phonon properties (per mole of unit cells): Temperature =    290.000 K
--------------------------------------------------------------------------------
  Zero point energy            =        1.718191 eV
  Entropy                      =        0.000117 eV/K
                               =       11.335105 J/(mol.K)
  Helmholtz free-energy        =      -57.247180 eV
                               =    -5523.477294 kJmol-1
  Free energy (equipartition)  =      -57.939427 eV
  - T*S       (equipartition)  =        0.417736 eV
  Uvib        (equipartition)  =        0.599767 eV
  Mean kinetic energy          =        0.871909 eV
  Heat capacity - const volume =        0.000333 eV/K
                               =       32.093505 J/(mol.K)
--------------------------------------------------------------------------------

  Time to end of properties =       1.2833 seconds


  Peak dynamic memory used =       0.67 MB 


  Timing analysis for GULP :

--------------------------------------------------------------------------------
  Task / Subroutine                                          Time (Seconds)
--------------------------------------------------------------------------------
  Calculation of real space energy and derivatives                0.0005
  Calculation of Brenner energy and derivatives                   1.2446
  Calculation of phonons                                          1.2722
  Disk read/write operations to scratch files                     0.0054
--------------------------------------------------------------------------------
  Total CPU time                                                  1.2833
--------------------------------------------------------------------------------


  Job Finished at 18:10.57 14th August     2020                               

