********************************************************************************
*                       GENERAL UTILITY LATTICE PROGRAM                        *
*                                 Julian Gale                                  *
*                       Curtin Institute for Computation                       *
*                    School of Molecular and Life Sciences                     *
*                    Curtin University, Western Australia                      *
********************************************************************************
* Version = 5.2.0 * Last modified =  17th December 2019                        *
********************************************************************************
*  single       - perform a single point run                                   *
*  property     - calculate properties for final geometry                      *
*  phonon       - calculate phonons for final geometry                         *
********************************************************************************
* ASE calculation                                                              *
********************************************************************************


  Job Started  at 13:02.52 31st July       2020                               

  Number of CPUs =     1


  Total number of configurations input =      1

********************************************************************************
*  Input for Configuration =   1                                               *
********************************************************************************

  Formula = C8                                                          

  Number of irreducible atoms/shells =       8


  Total number atoms/shells =       8

  Dimensionality = 3               :  Bulk   



  Cartesian lattice vectors (Angstroms) :

        3.622800    0.000000    0.000000
        0.000000    3.622800    0.000000
        0.000000    0.000000    3.622800

  Cell parameters (Angstroms/Degrees):

  a =       3.6228    alpha =  90.0000
  b =       3.6228    beta  =  90.0000
  c =       3.6228    gamma =  90.0000

  Initial cell volume =          47.548090 Angs**3

  Shrinking factors =      8     8     8

  Temperature of configuration =   10.0     K 

  Pressure of configuration =         0.000 GPa 

  Fractional coordinates of asymmetric unit :

--------------------------------------------------------------------------------
   No.  Atomic       x           y          z         Charge      Occupancy
        Label      (Frac)      (Frac)     (Frac)        (e)         (Frac)  
--------------------------------------------------------------------------------
      1 C     c    0.000000    0.000000    0.000000     0.00000    1.000000    
      2 C     c    0.000000    0.500000    0.500000     0.00000    1.000000    
      3 C     c    0.500000    0.500000    0.000000     0.00000    1.000000    
      4 C     c    0.500000    0.000000    0.500000     0.00000    1.000000    
      5 C     c    0.750000    0.250000    0.750000     0.00000    1.000000    
      6 C     c    0.250000    0.250000    0.250000     0.00000    1.000000    
      7 C     c    0.250000    0.750000    0.750000     0.00000    1.000000    
      8 C     c    0.750000    0.750000    0.250000     0.00000    1.000000    
--------------------------------------------------------------------------------


  Brillouin zone sampling points :

--------------------------------------------------------------------------------
  Point number          x          y          z            Weight
--------------------------------------------------------------------------------
        1           0.062500   0.062500   0.062500     0.00390625
        2           0.062500   0.062500   0.187500     0.00390625
        3           0.062500   0.062500   0.312500     0.00390625
        4           0.062500   0.062500   0.437500     0.00390625
        5           0.062500   0.062500   0.562500     0.00390625
        6           0.062500   0.062500   0.687500     0.00390625
        7           0.062500   0.062500   0.812500     0.00390625
        8           0.062500   0.062500   0.937500     0.00390625
        9           0.062500   0.187500   0.062500     0.00390625
       10           0.062500   0.187500   0.187500     0.00390625
       11           0.062500   0.187500   0.312500     0.00390625
       12           0.062500   0.187500   0.437500     0.00390625
       13           0.062500   0.187500   0.562500     0.00390625
       14           0.062500   0.187500   0.687500     0.00390625
       15           0.062500   0.187500   0.812500     0.00390625
       16           0.062500   0.187500   0.937500     0.00390625
       17           0.062500   0.312500   0.062500     0.00390625
       18           0.062500   0.312500   0.187500     0.00390625
       19           0.062500   0.312500   0.312500     0.00390625
       20           0.062500   0.312500   0.437500     0.00390625
       21           0.062500   0.312500   0.562500     0.00390625
       22           0.062500   0.312500   0.687500     0.00390625
       23           0.062500   0.312500   0.812500     0.00390625
       24           0.062500   0.312500   0.937500     0.00390625
       25           0.062500   0.437500   0.062500     0.00390625
       26           0.062500   0.437500   0.187500     0.00390625
       27           0.062500   0.437500   0.312500     0.00390625
       28           0.062500   0.437500   0.437500     0.00390625
       29           0.062500   0.437500   0.562500     0.00390625
       30           0.062500   0.437500   0.687500     0.00390625
       31           0.062500   0.437500   0.812500     0.00390625
       32           0.062500   0.437500   0.937500     0.00390625
       33           0.062500   0.562500   0.062500     0.00390625
       34           0.062500   0.562500   0.187500     0.00390625
       35           0.062500   0.562500   0.312500     0.00390625
       36           0.062500   0.562500   0.437500     0.00390625
       37           0.062500   0.562500   0.562500     0.00390625
       38           0.062500   0.562500   0.687500     0.00390625
       39           0.062500   0.562500   0.812500     0.00390625
       40           0.062500   0.562500   0.937500     0.00390625
       41           0.062500   0.687500   0.062500     0.00390625
       42           0.062500   0.687500   0.187500     0.00390625
       43           0.062500   0.687500   0.312500     0.00390625
       44           0.062500   0.687500   0.437500     0.00390625
       45           0.062500   0.687500   0.562500     0.00390625
       46           0.062500   0.687500   0.687500     0.00390625
       47           0.062500   0.687500   0.812500     0.00390625
       48           0.062500   0.687500   0.937500     0.00390625
       49           0.062500   0.812500   0.062500     0.00390625
       50           0.062500   0.812500   0.187500     0.00390625
       51           0.062500   0.812500   0.312500     0.00390625
       52           0.062500   0.812500   0.437500     0.00390625
       53           0.062500   0.812500   0.562500     0.00390625
       54           0.062500   0.812500   0.687500     0.00390625
       55           0.062500   0.812500   0.812500     0.00390625
       56           0.062500   0.812500   0.937500     0.00390625
       57           0.062500   0.937500   0.062500     0.00390625
       58           0.062500   0.937500   0.187500     0.00390625
       59           0.062500   0.937500   0.312500     0.00390625
       60           0.062500   0.937500   0.437500     0.00390625
       61           0.062500   0.937500   0.562500     0.00390625
       62           0.062500   0.937500   0.687500     0.00390625
       63           0.062500   0.937500   0.812500     0.00390625
       64           0.062500   0.937500   0.937500     0.00390625
       65           0.187500   0.062500   0.062500     0.00390625
       66           0.187500   0.062500   0.187500     0.00390625
       67           0.187500   0.062500   0.312500     0.00390625
       68           0.187500   0.062500   0.437500     0.00390625
       69           0.187500   0.062500   0.562500     0.00390625
       70           0.187500   0.062500   0.687500     0.00390625
       71           0.187500   0.062500   0.812500     0.00390625
       72           0.187500   0.062500   0.937500     0.00390625
       73           0.187500   0.187500   0.062500     0.00390625
       74           0.187500   0.187500   0.187500     0.00390625
       75           0.187500   0.187500   0.312500     0.00390625
       76           0.187500   0.187500   0.437500     0.00390625
       77           0.187500   0.187500   0.562500     0.00390625
       78           0.187500   0.187500   0.687500     0.00390625
       79           0.187500   0.187500   0.812500     0.00390625
       80           0.187500   0.187500   0.937500     0.00390625
       81           0.187500   0.312500   0.062500     0.00390625
       82           0.187500   0.312500   0.187500     0.00390625
       83           0.187500   0.312500   0.312500     0.00390625
       84           0.187500   0.312500   0.437500     0.00390625
       85           0.187500   0.312500   0.562500     0.00390625
       86           0.187500   0.312500   0.687500     0.00390625
       87           0.187500   0.312500   0.812500     0.00390625
       88           0.187500   0.312500   0.937500     0.00390625
       89           0.187500   0.437500   0.062500     0.00390625
       90           0.187500   0.437500   0.187500     0.00390625
       91           0.187500   0.437500   0.312500     0.00390625
       92           0.187500   0.437500   0.437500     0.00390625
       93           0.187500   0.437500   0.562500     0.00390625
       94           0.187500   0.437500   0.687500     0.00390625
       95           0.187500   0.437500   0.812500     0.00390625
       96           0.187500   0.437500   0.937500     0.00390625
       97           0.187500   0.562500   0.062500     0.00390625
       98           0.187500   0.562500   0.187500     0.00390625
       99           0.187500   0.562500   0.312500     0.00390625
      100           0.187500   0.562500   0.437500     0.00390625
      101           0.187500   0.562500   0.562500     0.00390625
      102           0.187500   0.562500   0.687500     0.00390625
      103           0.187500   0.562500   0.812500     0.00390625
      104           0.187500   0.562500   0.937500     0.00390625
      105           0.187500   0.687500   0.062500     0.00390625
      106           0.187500   0.687500   0.187500     0.00390625
      107           0.187500   0.687500   0.312500     0.00390625
      108           0.187500   0.687500   0.437500     0.00390625
      109           0.187500   0.687500   0.562500     0.00390625
      110           0.187500   0.687500   0.687500     0.00390625
      111           0.187500   0.687500   0.812500     0.00390625
      112           0.187500   0.687500   0.937500     0.00390625
      113           0.187500   0.812500   0.062500     0.00390625
      114           0.187500   0.812500   0.187500     0.00390625
      115           0.187500   0.812500   0.312500     0.00390625
      116           0.187500   0.812500   0.437500     0.00390625
      117           0.187500   0.812500   0.562500     0.00390625
      118           0.187500   0.812500   0.687500     0.00390625
      119           0.187500   0.812500   0.812500     0.00390625
      120           0.187500   0.812500   0.937500     0.00390625
      121           0.187500   0.937500   0.062500     0.00390625
      122           0.187500   0.937500   0.187500     0.00390625
      123           0.187500   0.937500   0.312500     0.00390625
      124           0.187500   0.937500   0.437500     0.00390625
      125           0.187500   0.937500   0.562500     0.00390625
      126           0.187500   0.937500   0.687500     0.00390625
      127           0.187500   0.937500   0.812500     0.00390625
      128           0.187500   0.937500   0.937500     0.00390625
      129           0.312500   0.062500   0.062500     0.00390625
      130           0.312500   0.062500   0.187500     0.00390625
      131           0.312500   0.062500   0.312500     0.00390625
      132           0.312500   0.062500   0.437500     0.00390625
      133           0.312500   0.062500   0.562500     0.00390625
      134           0.312500   0.062500   0.687500     0.00390625
      135           0.312500   0.062500   0.812500     0.00390625
      136           0.312500   0.062500   0.937500     0.00390625
      137           0.312500   0.187500   0.062500     0.00390625
      138           0.312500   0.187500   0.187500     0.00390625
      139           0.312500   0.187500   0.312500     0.00390625
      140           0.312500   0.187500   0.437500     0.00390625
      141           0.312500   0.187500   0.562500     0.00390625
      142           0.312500   0.187500   0.687500     0.00390625
      143           0.312500   0.187500   0.812500     0.00390625
      144           0.312500   0.187500   0.937500     0.00390625
      145           0.312500   0.312500   0.062500     0.00390625
      146           0.312500   0.312500   0.187500     0.00390625
      147           0.312500   0.312500   0.312500     0.00390625
      148           0.312500   0.312500   0.437500     0.00390625
      149           0.312500   0.312500   0.562500     0.00390625
      150           0.312500   0.312500   0.687500     0.00390625
      151           0.312500   0.312500   0.812500     0.00390625
      152           0.312500   0.312500   0.937500     0.00390625
      153           0.312500   0.437500   0.062500     0.00390625
      154           0.312500   0.437500   0.187500     0.00390625
      155           0.312500   0.437500   0.312500     0.00390625
      156           0.312500   0.437500   0.437500     0.00390625
      157           0.312500   0.437500   0.562500     0.00390625
      158           0.312500   0.437500   0.687500     0.00390625
      159           0.312500   0.437500   0.812500     0.00390625
      160           0.312500   0.437500   0.937500     0.00390625
      161           0.312500   0.562500   0.062500     0.00390625
      162           0.312500   0.562500   0.187500     0.00390625
      163           0.312500   0.562500   0.312500     0.00390625
      164           0.312500   0.562500   0.437500     0.00390625
      165           0.312500   0.562500   0.562500     0.00390625
      166           0.312500   0.562500   0.687500     0.00390625
      167           0.312500   0.562500   0.812500     0.00390625
      168           0.312500   0.562500   0.937500     0.00390625
      169           0.312500   0.687500   0.062500     0.00390625
      170           0.312500   0.687500   0.187500     0.00390625
      171           0.312500   0.687500   0.312500     0.00390625
      172           0.312500   0.687500   0.437500     0.00390625
      173           0.312500   0.687500   0.562500     0.00390625
      174           0.312500   0.687500   0.687500     0.00390625
      175           0.312500   0.687500   0.812500     0.00390625
      176           0.312500   0.687500   0.937500     0.00390625
      177           0.312500   0.812500   0.062500     0.00390625
      178           0.312500   0.812500   0.187500     0.00390625
      179           0.312500   0.812500   0.312500     0.00390625
      180           0.312500   0.812500   0.437500     0.00390625
      181           0.312500   0.812500   0.562500     0.00390625
      182           0.312500   0.812500   0.687500     0.00390625
      183           0.312500   0.812500   0.812500     0.00390625
      184           0.312500   0.812500   0.937500     0.00390625
      185           0.312500   0.937500   0.062500     0.00390625
      186           0.312500   0.937500   0.187500     0.00390625
      187           0.312500   0.937500   0.312500     0.00390625
      188           0.312500   0.937500   0.437500     0.00390625
      189           0.312500   0.937500   0.562500     0.00390625
      190           0.312500   0.937500   0.687500     0.00390625
      191           0.312500   0.937500   0.812500     0.00390625
      192           0.312500   0.937500   0.937500     0.00390625
      193           0.437500   0.062500   0.062500     0.00390625
      194           0.437500   0.062500   0.187500     0.00390625
      195           0.437500   0.062500   0.312500     0.00390625
      196           0.437500   0.062500   0.437500     0.00390625
      197           0.437500   0.062500   0.562500     0.00390625
      198           0.437500   0.062500   0.687500     0.00390625
      199           0.437500   0.062500   0.812500     0.00390625
      200           0.437500   0.062500   0.937500     0.00390625
      201           0.437500   0.187500   0.062500     0.00390625
      202           0.437500   0.187500   0.187500     0.00390625
      203           0.437500   0.187500   0.312500     0.00390625
      204           0.437500   0.187500   0.437500     0.00390625
      205           0.437500   0.187500   0.562500     0.00390625
      206           0.437500   0.187500   0.687500     0.00390625
      207           0.437500   0.187500   0.812500     0.00390625
      208           0.437500   0.187500   0.937500     0.00390625
      209           0.437500   0.312500   0.062500     0.00390625
      210           0.437500   0.312500   0.187500     0.00390625
      211           0.437500   0.312500   0.312500     0.00390625
      212           0.437500   0.312500   0.437500     0.00390625
      213           0.437500   0.312500   0.562500     0.00390625
      214           0.437500   0.312500   0.687500     0.00390625
      215           0.437500   0.312500   0.812500     0.00390625
      216           0.437500   0.312500   0.937500     0.00390625
      217           0.437500   0.437500   0.062500     0.00390625
      218           0.437500   0.437500   0.187500     0.00390625
      219           0.437500   0.437500   0.312500     0.00390625
      220           0.437500   0.437500   0.437500     0.00390625
      221           0.437500   0.437500   0.562500     0.00390625
      222           0.437500   0.437500   0.687500     0.00390625
      223           0.437500   0.437500   0.812500     0.00390625
      224           0.437500   0.437500   0.937500     0.00390625
      225           0.437500   0.562500   0.062500     0.00390625
      226           0.437500   0.562500   0.187500     0.00390625
      227           0.437500   0.562500   0.312500     0.00390625
      228           0.437500   0.562500   0.437500     0.00390625
      229           0.437500   0.562500   0.562500     0.00390625
      230           0.437500   0.562500   0.687500     0.00390625
      231           0.437500   0.562500   0.812500     0.00390625
      232           0.437500   0.562500   0.937500     0.00390625
      233           0.437500   0.687500   0.062500     0.00390625
      234           0.437500   0.687500   0.187500     0.00390625
      235           0.437500   0.687500   0.312500     0.00390625
      236           0.437500   0.687500   0.437500     0.00390625
      237           0.437500   0.687500   0.562500     0.00390625
      238           0.437500   0.687500   0.687500     0.00390625
      239           0.437500   0.687500   0.812500     0.00390625
      240           0.437500   0.687500   0.937500     0.00390625
      241           0.437500   0.812500   0.062500     0.00390625
      242           0.437500   0.812500   0.187500     0.00390625
      243           0.437500   0.812500   0.312500     0.00390625
      244           0.437500   0.812500   0.437500     0.00390625
      245           0.437500   0.812500   0.562500     0.00390625
      246           0.437500   0.812500   0.687500     0.00390625
      247           0.437500   0.812500   0.812500     0.00390625
      248           0.437500   0.812500   0.937500     0.00390625
      249           0.437500   0.937500   0.062500     0.00390625
      250           0.437500   0.937500   0.187500     0.00390625
      251           0.437500   0.937500   0.312500     0.00390625
      252           0.437500   0.937500   0.437500     0.00390625
      253           0.437500   0.937500   0.562500     0.00390625
      254           0.437500   0.937500   0.687500     0.00390625
      255           0.437500   0.937500   0.812500     0.00390625
      256           0.437500   0.937500   0.937500     0.00390625
--------------------------------------------------------------------------------


********************************************************************************
*  General input information                                                   *
********************************************************************************

  Species output for all configurations : 

--------------------------------------------------------------------------------
  Species    Type    Atomic    Atomic    Charge       Radii (Angs)     Library
                     Number     Mass       (e)     Cova   Ionic  VDW   Symbol
--------------------------------------------------------------------------------
    C        Core        6      12.01   0.000000   0.770  0.000  1.530          
--------------------------------------------------------------------------------


  Lattice summation method               =    Ewald          (3-D)
                                         =    Parry          (2-D)
                                         =    Saunders et al (1-D)
  Accuracy factor for lattice sums       =   12.000


  Analytic derivatives to be used

  Time limit = Infinity

  Maximum range for interatomic potentials =    100000.000000 Angstroms

  Brenner et al 2002 potential to be used with explicit splines for P


********************************************************************************
*  Output for configuration   1                                                *
********************************************************************************


  Components of energy : 

--------------------------------------------------------------------------------
  Interatomic potentials     =           0.00000000 eV    
  Brenner potentials         =         -58.82199553 eV    
  Monopole - monopole (real) =           0.00000000 eV    
  Monopole - monopole (recip)=           0.00000000 eV    
  Monopole - monopole (total)=           0.00000000 eV    
--------------------------------------------------------------------------------
  Total lattice energy       =         -58.82199553 eV    
--------------------------------------------------------------------------------
  Total lattice energy       =           -5675.4234 kJ/(mole unit cells)
--------------------------------------------------------------------------------


  Elastic Constant Matrix: (Units=GPa)

-------------------------------------------------------------------------------
  Indices      1         2         3         4         5         6    
-------------------------------------------------------------------------------
       1    950.6197   79.4858   79.4858    0.0000    0.0000   -0.0000
       2     79.4858  950.6197   79.4858    0.0000    0.0000   -0.0000
       3     79.4858   79.4858  950.6197    0.0000    0.0000   -0.0000
       4      0.0000    0.0000    0.0000  628.3855   -0.0000    0.0000
       5      0.0000    0.0000    0.0000   -0.0000  628.3855    0.0000
       6     -0.0000   -0.0000   -0.0000    0.0000    0.0000  628.3855
-------------------------------------------------------------------------------


  Elastic Compliance Matrix: (Units=1/GPa)

-------------------------------------------------------------------------------
  Indices      1         2         3         4         5         6    
-------------------------------------------------------------------------------
       1    0.001066 -0.000082 -0.000082 -0.000000 -0.000000  0.000000
       2   -0.000082  0.001066 -0.000082 -0.000000 -0.000000  0.000000
       3   -0.000082 -0.000082  0.001066 -0.000000 -0.000000  0.000000
       4   -0.000000 -0.000000 -0.000000  0.001591  0.000000 -0.000000
       5   -0.000000 -0.000000 -0.000000  0.000000  0.001591 -0.000000
       6    0.000000  0.000000  0.000000 -0.000000 -0.000000  0.001591
-------------------------------------------------------------------------------

  Mechanical properties :

-------------------------------------------------------------------------------
  Convention :                    Reuss         Voigt         Hill
-------------------------------------------------------------------------------
  Bulk  Modulus (GPa)     =     369.86377     369.86377     369.86377
  Shear Modulus (GPa)     =     533.85402     551.25806     542.55604
-------------------------------------------------------------------------------
  Velocity S-wave (km/s)  =      12.61343      12.81739      12.71582
  Velocity P-wave (km/s)  =      17.95433      18.14590      18.05037
-------------------------------------------------------------------------------
  Compressibility (1/GPa) =    0.00270370
-------------------------------------------------------------------------------
  Stress axis :                     x             y             z
-------------------------------------------------------------------------------
  Youngs Moduli (GPa)     =     938.35304     938.35304     938.35304
-------------------------------------------------------------------------------
  Poissons Ratio (x)      =                     0.07716       0.07716
  Poissons Ratio (y)      =       0.07716                     0.07716
  Poissons Ratio (z)      =       0.07716       0.07716
-------------------------------------------------------------------------------


  Piezoelectric Strain Matrix: (Units=C/m**2)

-------------------------------------------------------------------------------
  Indices      1         2         3         4         5         6    
-------------------------------------------------------------------------------
       x    -0.00000  -0.00000  -0.00000  -0.00000  -0.00000  -0.00000
       y    -0.00000  -0.00000  -0.00000  -0.00000  -0.00000  -0.00000
       z    -0.00000  -0.00000  -0.00000  -0.00000  -0.00000  -0.00000
-------------------------------------------------------------------------------


  Piezoelectric Stress Matrix: (Units=10**-11 C/N)

-------------------------------------------------------------------------------
  Indices      1         2         3         4         5         6    
-------------------------------------------------------------------------------
       x     0.00000   0.00000   0.00000   0.00000   0.00000   0.00000
       y     0.00000   0.00000   0.00000   0.00000   0.00000   0.00000
       z     0.00000   0.00000   0.00000   0.00000   0.00000   0.00000
-------------------------------------------------------------------------------


  Static dielectric constant tensor : 

-------------------------------------------------------------------------------
              x         y         z
-------------------------------------------------------------------------------
       x     1.00000   0.00000   0.00000
       y     0.00000   1.00000   0.00000
       z     0.00000   0.00000   1.00000
--------------------------------------------------------------------------------

  Static refractive indices : 

-------------------------------------------------------------------------------
    1 =    1.00000      2 =    1.00000      3 =    1.00000
-------------------------------------------------------------------------------


  Phonon Calculation : 

  Number of k points for this configuration =      256

--------------------------------------------------------------------------------
  K point      1 =   0.062500  0.062500  0.062500  Weight =    0.004
--------------------------------------------------------------------------------

  Frequencies (cm-1) [NB: Negative implies an imaginary mode]:

  121.26  121.26  186.80 1010.45 1010.45 1010.45 1020.06 1020.06 1020.06
 1133.56 1133.56 1133.56 1165.18 1165.18 1165.18 1201.11 1201.11 1201.11
 1267.77 1267.77 1267.77 1468.64 1468.64 1473.23


--------------------------------------------------------------------------------
  K point      2 =   0.062500  0.062500  0.187500  Weight =    0.004
--------------------------------------------------------------------------------

  Frequencies (cm-1) [NB: Negative implies an imaginary mode]:

  237.37  251.22  336.09  918.99  925.49 1002.57 1002.57 1029.25 1029.25
 1063.58 1093.05 1093.05 1157.81 1157.81 1231.78 1231.78 1232.21 1240.05
 1279.44 1279.44 1331.89 1456.72 1457.49 1470.23


--------------------------------------------------------------------------------
  K point      3 =   0.062500  0.062500  0.312500  Weight =    0.004
--------------------------------------------------------------------------------

  Frequencies (cm-1) [NB: Negative implies an imaginary mode]:

  386.95  396.34  499.78  804.00  808.09  946.37  999.57  999.57 1036.09
 1036.09 1055.38 1055.38 1144.75 1144.75 1259.92 1259.92 1292.18 1292.18
 1298.98 1303.49 1382.47 1434.79 1435.07 1461.25


--------------------------------------------------------------------------------
  K point      4 =   0.062500  0.062500  0.437500  Weight =    0.004
--------------------------------------------------------------------------------

  Frequencies (cm-1) [NB: Negative implies an imaginary mode]:

  535.80  539.59  660.10  676.44  677.21  810.40 1004.65 1004.65 1024.44
 1024.44 1042.84 1042.84 1136.45 1136.45 1275.93 1275.93 1299.32 1299.32
 1355.79 1358.33 1401.21 1402.13 1419.52 1445.02


--------------------------------------------------------------------------------
  K point      5 =   0.062500  0.062500  0.562500  Weight =    0.004
--------------------------------------------------------------------------------

  Frequencies (cm-1) [NB: Negative implies an imaginary mode]:

  535.80  539.59  660.10  676.44  677.21  810.40 1004.65 1004.65 1024.44
 1024.44 1042.84 1042.84 1136.45 1136.45 1275.93 1275.93 1299.32 1299.32
 1355.79 1358.33 1401.21 1402.13 1419.52 1445.02


--------------------------------------------------------------------------------
  K point      6 =   0.062500  0.062500  0.687500  Weight =    0.004
--------------------------------------------------------------------------------

  Frequencies (cm-1) [NB: Negative implies an imaginary mode]:

  386.95  396.34  499.78  804.00  808.09  946.37  999.57  999.57 1036.09
 1036.09 1055.38 1055.38 1144.75 1144.75 1259.92 1259.92 1292.18 1292.18
 1298.98 1303.49 1382.47 1434.79 1435.07 1461.25


--------------------------------------------------------------------------------
  K point      7 =   0.062500  0.062500  0.812500  Weight =    0.004
--------------------------------------------------------------------------------

  Frequencies (cm-1) [NB: Negative implies an imaginary mode]:

  237.37  251.22  336.09  918.99  925.49 1002.57 1002.57 1029.25 1029.25
 1063.58 1093.05 1093.05 1157.81 1157.81 1231.78 1231.78 1232.21 1240.05
 1279.44 1279.44 1331.89 1456.72 1457.49 1470.23


--------------------------------------------------------------------------------
  K point      8 =   0.062500  0.062500  0.937500  Weight =    0.004
--------------------------------------------------------------------------------

  Frequencies (cm-1) [NB: Negative implies an imaginary mode]:

  121.26  121.26  186.80 1010.45 1010.45 1010.45 1020.06 1020.06 1020.06
 1133.56 1133.56 1133.56 1165.18 1165.18 1165.18 1201.11 1201.11 1201.11
 1267.77 1267.77 1267.77 1468.64 1468.64 1473.23


--------------------------------------------------------------------------------
  K point      9 =   0.062500  0.187500  0.062500  Weight =    0.004
--------------------------------------------------------------------------------

  Frequencies (cm-1) [NB: Negative implies an imaginary mode]:

  237.37  251.22  336.09  918.99  925.49 1002.57 1002.57 1029.25 1029.25
 1063.58 1093.05 1093.05 1157.81 1157.81 1231.78 1231.78 1232.21 1240.05
 1279.44 1279.44 1331.89 1456.72 1457.49 1470.23


--------------------------------------------------------------------------------
  K point     10 =   0.062500  0.187500  0.187500  Weight =    0.004
--------------------------------------------------------------------------------

  Frequencies (cm-1) [NB: Negative implies an imaginary mode]:

  286.23  330.59  448.12  917.64  917.64  937.08  937.08  971.61 1038.67
 1042.52 1042.52 1071.22 1180.98 1218.66 1227.43 1227.43 1262.72 1262.72
 1302.63 1327.11 1327.11 1442.67 1447.13 1468.87


--------------------------------------------------------------------------------
  K point     11 =   0.062500  0.187500  0.312500  Weight =    0.004
--------------------------------------------------------------------------------

  Frequencies (cm-1) [NB: Negative implies an imaginary mode]:

  398.06  449.93  581.64  802.41  826.50  919.26  944.83  951.45  953.50
 1021.91 1022.50 1054.85 1184.26 1217.66 1241.59 1290.28 1291.81 1312.86
 1317.17 1319.26 1374.05 1419.59 1427.07 1459.72


--------------------------------------------------------------------------------
  K point     12 =   0.062500  0.187500  0.437500  Weight =    0.004
--------------------------------------------------------------------------------

  Frequencies (cm-1) [NB: Negative implies an imaginary mode]:

  533.65  578.68  671.77  705.94  715.04  840.02  921.50  928.06  974.09
  997.52 1019.71 1034.60 1191.78 1204.79 1272.16 1295.96 1315.36 1323.56
 1345.33 1359.18 1387.61 1397.51 1412.58 1441.17


--------------------------------------------------------------------------------
  K point     13 =   0.062500  0.187500  0.562500  Weight =    0.004
--------------------------------------------------------------------------------

  Frequencies (cm-1) [NB: Negative implies an imaginary mode]:

  533.65  578.68  671.77  705.94  715.04  840.02  921.50  928.06  974.09
  997.52 1019.71 1034.60 1191.78 1204.79 1272.16 1295.96 1315.36 1323.56
 1345.33 1359.18 1387.61 1397.51 1412.58 1441.17


--------------------------------------------------------------------------------
  K point     14 =   0.062500  0.187500  0.687500  Weight =    0.004
--------------------------------------------------------------------------------

  Frequencies (cm-1) [NB: Negative implies an imaginary mode]:

  398.06  449.93  581.64  802.41  826.50  919.26  944.83  951.45  953.50
 1021.91 1022.50 1054.85 1184.26 1217.66 1241.59 1290.28 1291.81 1312.86
 1317.17 1319.26 1374.05 1419.59 1427.07 1459.72


--------------------------------------------------------------------------------
  K point     15 =   0.062500  0.187500  0.812500  Weight =    0.004
--------------------------------------------------------------------------------

  Frequencies (cm-1) [NB: Negative implies an imaginary mode]:

  286.23  330.59  448.12  917.64  917.64  937.08  937.08  971.61 1038.67
 1042.52 1042.52 1071.22 1180.98 1218.66 1227.43 1227.43 1262.72 1262.72
 1302.63 1327.11 1327.11 1442.67 1447.13 1468.87


--------------------------------------------------------------------------------
  K point     16 =   0.062500  0.187500  0.937500  Weight =    0.004
--------------------------------------------------------------------------------

  Frequencies (cm-1) [NB: Negative implies an imaginary mode]:

  237.37  251.22  336.09  918.99  925.49 1002.57 1002.57 1029.25 1029.25
 1063.58 1093.05 1093.05 1157.81 1157.81 1231.78 1231.78 1232.21 1240.05
 1279.44 1279.44 1331.89 1456.72 1457.49 1470.23


--------------------------------------------------------------------------------
  K point     17 =   0.062500  0.312500  0.062500  Weight =    0.004
--------------------------------------------------------------------------------

  Frequencies (cm-1) [NB: Negative implies an imaginary mode]:

  386.95  396.34  499.78  804.00  808.09  946.37  999.57  999.57 1036.09
 1036.09 1055.38 1055.38 1144.75 1144.75 1259.92 1259.92 1292.18 1292.18
 1298.98 1303.49 1382.47 1434.79 1435.07 1461.25


--------------------------------------------------------------------------------
  K point     18 =   0.062500  0.312500  0.187500  Weight =    0.004
--------------------------------------------------------------------------------

  Frequencies (cm-1) [NB: Negative implies an imaginary mode]:

  398.06  449.93  581.64  802.41  826.50  919.26  944.83  951.45  953.50
 1021.91 1022.50 1054.85 1184.26 1217.66 1241.59 1290.28 1291.81 1312.86
 1317.17 1319.26 1374.05 1419.59 1427.07 1459.72


--------------------------------------------------------------------------------
  K point     19 =   0.062500  0.312500  0.312500  Weight =    0.004
--------------------------------------------------------------------------------

  Frequencies (cm-1) [NB: Negative implies an imaginary mode]:

  459.54  541.73  684.19  803.98  803.98  861.43  861.43  890.01  962.13
  962.13  991.00 1035.68 1217.93 1256.66 1278.21 1278.21 1326.77 1326.77
 1337.17 1356.87 1356.87 1395.35 1411.50 1449.98


--------------------------------------------------------------------------------
  K point     20 =   0.062500  0.312500  0.437500  Weight =    0.004
--------------------------------------------------------------------------------

  Frequencies (cm-1) [NB: Negative implies an imaginary mode]:

  560.86  648.81  680.66  758.06  787.17  816.77  845.55  881.69  906.52
  952.64  979.37 1004.74 1239.08 1259.80 1295.00 1326.07 1329.75 1339.40
 1343.51 1359.99 1364.34 1388.75 1397.31 1429.28


--------------------------------------------------------------------------------
  K point     21 =   0.062500  0.312500  0.562500  Weight =    0.004
--------------------------------------------------------------------------------

  Frequencies (cm-1) [NB: Negative implies an imaginary mode]:

  560.86  648.81  680.66  758.06  787.17  816.77  845.55  881.69  906.52
  952.64  979.37 1004.74 1239.08 1259.80 1295.00 1326.07 1329.75 1339.40
 1343.51 1359.99 1364.34 1388.75 1397.31 1429.28


--------------------------------------------------------------------------------
  K point     22 =   0.062500  0.312500  0.687500  Weight =    0.004
--------------------------------------------------------------------------------

  Frequencies (cm-1) [NB: Negative implies an imaginary mode]:

  459.54  541.73  684.19  803.98  803.98  861.43  861.43  890.01  962.13
  962.13  991.00 1035.68 1217.93 1256.66 1278.21 1278.21 1326.77 1326.77
 1337.17 1356.87 1356.87 1395.35 1411.50 1449.98


--------------------------------------------------------------------------------
  K point     23 =   0.062500  0.312500  0.812500  Weight =    0.004
--------------------------------------------------------------------------------

  Frequencies (cm-1) [NB: Negative implies an imaginary mode]:

  398.06  449.93  581.64  802.41  826.50  919.26  944.83  951.45  953.50
 1021.91 1022.50 1054.85 1184.26 1217.66 1241.59 1290.28 1291.81 1312.86
 1317.17 1319.26 1374.05 1419.59 1427.07 1459.72


--------------------------------------------------------------------------------
  K point     24 =   0.062500  0.312500  0.937500  Weight =    0.004
--------------------------------------------------------------------------------

  Frequencies (cm-1) [NB: Negative implies an imaginary mode]:

  386.95  396.34  499.78  804.00  808.09  946.37  999.57  999.57 1036.09
 1036.09 1055.38 1055.38 1144.75 1144.75 1259.92 1259.92 1292.18 1292.18
 1298.98 1303.49 1382.47 1434.79 1435.07 1461.25


--------------------------------------------------------------------------------
  K point     25 =   0.062500  0.437500  0.062500  Weight =    0.004
--------------------------------------------------------------------------------

  Frequencies (cm-1) [NB: Negative implies an imaginary mode]:

  535.80  539.59  660.10  676.44  677.21  810.40 1004.65 1004.65 1024.44
 1024.44 1042.84 1042.84 1136.45 1136.45 1275.93 1275.93 1299.32 1299.32
 1355.79 1358.33 1401.21 1402.13 1419.52 1445.02


--------------------------------------------------------------------------------
  K point     26 =   0.062500  0.437500  0.187500  Weight =    0.004
--------------------------------------------------------------------------------

  Frequencies (cm-1) [NB: Negative implies an imaginary mode]:

  533.65  578.68  671.77  705.94  715.04  840.02  921.50  928.06  974.09
  997.52 1019.71 1034.60 1191.78 1204.79 1272.16 1295.96 1315.36 1323.56
 1345.33 1359.18 1387.61 1397.51 1412.58 1441.17


--------------------------------------------------------------------------------
  K point     27 =   0.062500  0.437500  0.312500  Weight =    0.004
--------------------------------------------------------------------------------

  Frequencies (cm-1) [NB: Negative implies an imaginary mode]:

  560.86  648.81  680.66  758.06  787.17  816.77  845.55  881.69  906.52
  952.64  979.37 1004.74 1239.08 1259.80 1295.00 1326.07 1329.75 1339.40
 1343.51 1359.99 1364.34 1388.75 1397.31 1429.28


--------------------------------------------------------------------------------
  K point     28 =   0.062500  0.437500  0.437500  Weight =    0.004
--------------------------------------------------------------------------------

  Frequencies (cm-1) [NB: Negative implies an imaginary mode]:

  624.24  713.82  713.82  734.53  770.99  823.68  823.68  859.59  892.13
  924.98  924.98  966.39 1272.33 1300.97 1300.97 1332.77 1335.06 1356.94
 1356.99 1356.99 1373.70 1373.70 1375.36 1406.67


--------------------------------------------------------------------------------
  K point     29 =   0.062500  0.437500  0.562500  Weight =    0.004
--------------------------------------------------------------------------------

  Frequencies (cm-1) [NB: Negative implies an imaginary mode]:

  624.24  713.82  713.82  734.53  770.99  823.68  823.68  859.59  892.13
  924.98  924.98  966.39 1272.33 1300.97 1300.97 1332.77 1335.06 1356.94
 1356.99 1356.99 1373.70 1373.70 1375.36 1406.67


--------------------------------------------------------------------------------
  K point     30 =   0.062500  0.437500  0.687500  Weight =    0.004
--------------------------------------------------------------------------------

  Frequencies (cm-1) [NB: Negative implies an imaginary mode]:

  560.86  648.81  680.66  758.06  787.17  816.77  845.55  881.69  906.52
  952.64  979.37 1004.74 1239.08 1259.80 1295.00 1326.07 1329.75 1339.40
 1343.51 1359.99 1364.34 1388.75 1397.31 1429.28


--------------------------------------------------------------------------------
  K point     31 =   0.062500  0.437500  0.812500  Weight =    0.004
--------------------------------------------------------------------------------

  Frequencies (cm-1) [NB: Negative implies an imaginary mode]:

  533.65  578.68  671.77  705.94  715.04  840.02  921.50  928.06  974.09
  997.52 1019.71 1034.60 1191.78 1204.79 1272.16 1295.96 1315.36 1323.56
 1345.33 1359.18 1387.61 1397.51 1412.58 1441.17


--------------------------------------------------------------------------------
  K point     32 =   0.062500  0.437500  0.937500  Weight =    0.004
--------------------------------------------------------------------------------

  Frequencies (cm-1) [NB: Negative implies an imaginary mode]:

  535.80  539.59  660.10  676.44  677.21  810.40 1004.65 1004.65 1024.44
 1024.44 1042.84 1042.84 1136.45 1136.45 1275.93 1275.93 1299.32 1299.32
 1355.79 1358.33 1401.21 1402.13 1419.52 1445.02


--------------------------------------------------------------------------------
  K point     33 =   0.062500  0.562500  0.062500  Weight =    0.004
--------------------------------------------------------------------------------

  Frequencies (cm-1) [NB: Negative implies an imaginary mode]:

  535.80  539.59  660.10  676.44  677.21  810.40 1004.65 1004.65 1024.44
 1024.44 1042.84 1042.84 1136.45 1136.45 1275.93 1275.93 1299.32 1299.32
 1355.79 1358.33 1401.21 1402.13 1419.52 1445.02


--------------------------------------------------------------------------------
  K point     34 =   0.062500  0.562500  0.187500  Weight =    0.004
--------------------------------------------------------------------------------

  Frequencies (cm-1) [NB: Negative implies an imaginary mode]:

  533.65  578.68  671.77  705.94  715.04  840.02  921.50  928.06  974.09
  997.52 1019.71 1034.60 1191.78 1204.79 1272.16 1295.96 1315.36 1323.56
 1345.33 1359.18 1387.61 1397.51 1412.58 1441.17


--------------------------------------------------------------------------------
  K point     35 =   0.062500  0.562500  0.312500  Weight =    0.004
--------------------------------------------------------------------------------

  Frequencies (cm-1) [NB: Negative implies an imaginary mode]:

  560.86  648.81  680.66  758.06  787.17  816.77  845.55  881.69  906.52
  952.64  979.37 1004.74 1239.08 1259.80 1295.00 1326.07 1329.75 1339.40
 1343.51 1359.99 1364.34 1388.75 1397.31 1429.28


--------------------------------------------------------------------------------
  K point     36 =   0.062500  0.562500  0.437500  Weight =    0.004
--------------------------------------------------------------------------------

  Frequencies (cm-1) [NB: Negative implies an imaginary mode]:

  624.24  713.82  713.82  734.53  770.99  823.68  823.68  859.59  892.13
  924.98  924.98  966.39 1272.33 1300.97 1300.97 1332.77 1335.06 1356.94
 1356.99 1356.99 1373.70 1373.70 1375.36 1406.67


--------------------------------------------------------------------------------
  K point     37 =   0.062500  0.562500  0.562500  Weight =    0.004
--------------------------------------------------------------------------------

  Frequencies (cm-1) [NB: Negative implies an imaginary mode]:

  624.24  713.82  713.82  734.53  770.99  823.68  823.68  859.59  892.13
  924.98  924.98  966.39 1272.33 1300.97 1300.97 1332.77 1335.06 1356.94
 1356.99 1356.99 1373.70 1373.70 1375.36 1406.67


--------------------------------------------------------------------------------
  K point     38 =   0.062500  0.562500  0.687500  Weight =    0.004
--------------------------------------------------------------------------------

  Frequencies (cm-1) [NB: Negative implies an imaginary mode]:

  560.86  648.81  680.66  758.06  787.17  816.77  845.55  881.69  906.52
  952.64  979.37 1004.74 1239.08 1259.80 1295.00 1326.07 1329.75 1339.40
 1343.51 1359.99 1364.34 1388.75 1397.31 1429.28


--------------------------------------------------------------------------------
  K point     39 =   0.062500  0.562500  0.812500  Weight =    0.004
--------------------------------------------------------------------------------

  Frequencies (cm-1) [NB: Negative implies an imaginary mode]:

  533.65  578.68  671.77  705.94  715.04  840.02  921.50  928.06  974.09
  997.52 1019.71 1034.60 1191.78 1204.79 1272.16 1295.96 1315.36 1323.56
 1345.33 1359.18 1387.61 1397.51 1412.58 1441.17


--------------------------------------------------------------------------------
  K point     40 =   0.062500  0.562500  0.937500  Weight =    0.004
--------------------------------------------------------------------------------

  Frequencies (cm-1) [NB: Negative implies an imaginary mode]:

  535.80  539.59  660.10  676.44  677.21  810.40 1004.65 1004.65 1024.44
 1024.44 1042.84 1042.84 1136.45 1136.45 1275.93 1275.93 1299.32 1299.32
 1355.79 1358.33 1401.21 1402.13 1419.52 1445.02


--------------------------------------------------------------------------------
  K point     41 =   0.062500  0.687500  0.062500  Weight =    0.004
--------------------------------------------------------------------------------

  Frequencies (cm-1) [NB: Negative implies an imaginary mode]:

  386.95  396.34  499.78  804.00  808.09  946.37  999.57  999.57 1036.09
 1036.09 1055.38 1055.38 1144.75 1144.75 1259.92 1259.92 1292.18 1292.18
 1298.98 1303.49 1382.47 1434.79 1435.07 1461.25


--------------------------------------------------------------------------------
  K point     42 =   0.062500  0.687500  0.187500  Weight =    0.004
--------------------------------------------------------------------------------

  Frequencies (cm-1) [NB: Negative implies an imaginary mode]:

  398.06  449.93  581.64  802.41  826.50  919.26  944.83  951.45  953.50
 1021.91 1022.50 1054.85 1184.26 1217.66 1241.59 1290.28 1291.81 1312.86
 1317.17 1319.26 1374.05 1419.59 1427.07 1459.72


--------------------------------------------------------------------------------
  K point     43 =   0.062500  0.687500  0.312500  Weight =    0.004
--------------------------------------------------------------------------------

  Frequencies (cm-1) [NB: Negative implies an imaginary mode]:

  459.54  541.73  684.19  803.98  803.98  861.43  861.43  890.01  962.13
  962.13  991.00 1035.68 1217.93 1256.66 1278.21 1278.21 1326.77 1326.77
 1337.17 1356.87 1356.87 1395.35 1411.50 1449.98


--------------------------------------------------------------------------------
  K point     44 =   0.062500  0.687500  0.437500  Weight =    0.004
--------------------------------------------------------------------------------

  Frequencies (cm-1) [NB: Negative implies an imaginary mode]:

  560.86  648.81  680.66  758.06  787.17  816.77  845.55  881.69  906.52
  952.64  979.37 1004.74 1239.08 1259.80 1295.00 1326.07 1329.75 1339.40
 1343.51 1359.99 1364.34 1388.75 1397.31 1429.28


--------------------------------------------------------------------------------
  K point     45 =   0.062500  0.687500  0.562500  Weight =    0.004
--------------------------------------------------------------------------------

  Frequencies (cm-1) [NB: Negative implies an imaginary mode]:

  560.86  648.81  680.66  758.06  787.17  816.77  845.55  881.69  906.52
  952.64  979.37 1004.74 1239.08 1259.80 1295.00 1326.07 1329.75 1339.40
 1343.51 1359.99 1364.34 1388.75 1397.31 1429.28


--------------------------------------------------------------------------------
  K point     46 =   0.062500  0.687500  0.687500  Weight =    0.004
--------------------------------------------------------------------------------

  Frequencies (cm-1) [NB: Negative implies an imaginary mode]:

  459.54  541.73  684.19  803.98  803.98  861.43  861.43  890.01  962.13
  962.13  991.00 1035.68 1217.93 1256.66 1278.21 1278.21 1326.77 1326.77
 1337.17 1356.87 1356.87 1395.35 1411.50 1449.98


--------------------------------------------------------------------------------
  K point     47 =   0.062500  0.687500  0.812500  Weight =    0.004
--------------------------------------------------------------------------------

  Frequencies (cm-1) [NB: Negative implies an imaginary mode]:

  398.06  449.93  581.64  802.41  826.50  919.26  944.83  951.45  953.50
 1021.91 1022.50 1054.85 1184.26 1217.66 1241.59 1290.28 1291.81 1312.86
 1317.17 1319.26 1374.05 1419.59 1427.07 1459.72


--------------------------------------------------------------------------------
  K point     48 =   0.062500  0.687500  0.937500  Weight =    0.004
--------------------------------------------------------------------------------

  Frequencies (cm-1) [NB: Negative implies an imaginary mode]:

  386.95  396.34  499.78  804.00  808.09  946.37  999.57  999.57 1036.09
 1036.09 1055.38 1055.38 1144.75 1144.75 1259.92 1259.92 1292.18 1292.18
 1298.98 1303.49 1382.47 1434.79 1435.07 1461.25


--------------------------------------------------------------------------------
  K point     49 =   0.062500  0.812500  0.062500  Weight =    0.004
--------------------------------------------------------------------------------

  Frequencies (cm-1) [NB: Negative implies an imaginary mode]:

  237.37  251.22  336.09  918.99  925.49 1002.57 1002.57 1029.25 1029.25
 1063.58 1093.05 1093.05 1157.81 1157.81 1231.78 1231.78 1232.21 1240.05
 1279.44 1279.44 1331.89 1456.72 1457.49 1470.23


--------------------------------------------------------------------------------
  K point     50 =   0.062500  0.812500  0.187500  Weight =    0.004
--------------------------------------------------------------------------------

  Frequencies (cm-1) [NB: Negative implies an imaginary mode]:

  286.23  330.59  448.12  917.64  917.64  937.08  937.08  971.61 1038.67
 1042.52 1042.52 1071.22 1180.98 1218.66 1227.43 1227.43 1262.72 1262.72
 1302.63 1327.11 1327.11 1442.67 1447.13 1468.87


--------------------------------------------------------------------------------
  K point     51 =   0.062500  0.812500  0.312500  Weight =    0.004
--------------------------------------------------------------------------------

  Frequencies (cm-1) [NB: Negative implies an imaginary mode]:

  398.06  449.93  581.64  802.41  826.50  919.26  944.83  951.45  953.50
 1021.91 1022.50 1054.85 1184.26 1217.66 1241.59 1290.28 1291.81 1312.86
 1317.17 1319.26 1374.05 1419.59 1427.07 1459.72


--------------------------------------------------------------------------------
  K point     52 =   0.062500  0.812500  0.437500  Weight =    0.004
--------------------------------------------------------------------------------

  Frequencies (cm-1) [NB: Negative implies an imaginary mode]:

  533.65  578.68  671.77  705.94  715.04  840.02  921.50  928.06  974.09
  997.52 1019.71 1034.60 1191.78 1204.79 1272.16 1295.96 1315.36 1323.56
 1345.33 1359.18 1387.61 1397.51 1412.58 1441.17


--------------------------------------------------------------------------------
  K point     53 =   0.062500  0.812500  0.562500  Weight =    0.004
--------------------------------------------------------------------------------

  Frequencies (cm-1) [NB: Negative implies an imaginary mode]:

  533.65  578.68  671.77  705.94  715.04  840.02  921.50  928.06  974.09
  997.52 1019.71 1034.60 1191.78 1204.79 1272.16 1295.96 1315.36 1323.56
 1345.33 1359.18 1387.61 1397.51 1412.58 1441.17


--------------------------------------------------------------------------------
  K point     54 =   0.062500  0.812500  0.687500  Weight =    0.004
--------------------------------------------------------------------------------

  Frequencies (cm-1) [NB: Negative implies an imaginary mode]:

  398.06  449.93  581.64  802.41  826.50  919.26  944.83  951.45  953.50
 1021.91 1022.50 1054.85 1184.26 1217.66 1241.59 1290.28 1291.81 1312.86
 1317.17 1319.26 1374.05 1419.59 1427.07 1459.72


--------------------------------------------------------------------------------
  K point     55 =   0.062500  0.812500  0.812500  Weight =    0.004
--------------------------------------------------------------------------------

  Frequencies (cm-1) [NB: Negative implies an imaginary mode]:

  286.23  330.59  448.12  917.64  917.64  937.08  937.08  971.61 1038.67
 1042.52 1042.52 1071.22 1180.98 1218.66 1227.43 1227.43 1262.72 1262.72
 1302.63 1327.11 1327.11 1442.67 1447.13 1468.87


--------------------------------------------------------------------------------
  K point     56 =   0.062500  0.812500  0.937500  Weight =    0.004
--------------------------------------------------------------------------------

  Frequencies (cm-1) [NB: Negative implies an imaginary mode]:

  237.37  251.22  336.09  918.99  925.49 1002.57 1002.57 1029.25 1029.25
 1063.58 1093.05 1093.05 1157.81 1157.81 1231.78 1231.78 1232.21 1240.05
 1279.44 1279.44 1331.89 1456.72 1457.49 1470.23


--------------------------------------------------------------------------------
  K point     57 =   0.062500  0.937500  0.062500  Weight =    0.004
--------------------------------------------------------------------------------

  Frequencies (cm-1) [NB: Negative implies an imaginary mode]:

  121.26  121.26  186.80 1010.45 1010.45 1010.45 1020.06 1020.06 1020.06
 1133.56 1133.56 1133.56 1165.18 1165.18 1165.18 1201.11 1201.11 1201.11
 1267.77 1267.77 1267.77 1468.64 1468.64 1473.23


--------------------------------------------------------------------------------
  K point     58 =   0.062500  0.937500  0.187500  Weight =    0.004
--------------------------------------------------------------------------------

  Frequencies (cm-1) [NB: Negative implies an imaginary mode]:

  237.37  251.22  336.09  918.99  925.49 1002.57 1002.57 1029.25 1029.25
 1063.58 1093.05 1093.05 1157.81 1157.81 1231.78 1231.78 1232.21 1240.05
 1279.44 1279.44 1331.89 1456.72 1457.49 1470.23


--------------------------------------------------------------------------------
  K point     59 =   0.062500  0.937500  0.312500  Weight =    0.004
--------------------------------------------------------------------------------

  Frequencies (cm-1) [NB: Negative implies an imaginary mode]:

  386.95  396.34  499.78  804.00  808.09  946.37  999.57  999.57 1036.09
 1036.09 1055.38 1055.38 1144.75 1144.75 1259.92 1259.92 1292.18 1292.18
 1298.98 1303.49 1382.47 1434.79 1435.07 1461.25


--------------------------------------------------------------------------------
  K point     60 =   0.062500  0.937500  0.437500  Weight =    0.004
--------------------------------------------------------------------------------

  Frequencies (cm-1) [NB: Negative implies an imaginary mode]:

  535.80  539.59  660.10  676.44  677.21  810.40 1004.65 1004.65 1024.44
 1024.44 1042.84 1042.84 1136.45 1136.45 1275.93 1275.93 1299.32 1299.32
 1355.79 1358.33 1401.21 1402.13 1419.52 1445.02


--------------------------------------------------------------------------------
  K point     61 =   0.062500  0.937500  0.562500  Weight =    0.004
--------------------------------------------------------------------------------

  Frequencies (cm-1) [NB: Negative implies an imaginary mode]:

  535.80  539.59  660.10  676.44  677.21  810.40 1004.65 1004.65 1024.44
 1024.44 1042.84 1042.84 1136.45 1136.45 1275.93 1275.93 1299.32 1299.32
 1355.79 1358.33 1401.21 1402.13 1419.52 1445.02


--------------------------------------------------------------------------------
  K point     62 =   0.062500  0.937500  0.687500  Weight =    0.004
--------------------------------------------------------------------------------

  Frequencies (cm-1) [NB: Negative implies an imaginary mode]:

  386.95  396.34  499.78  804.00  808.09  946.37  999.57  999.57 1036.09
 1036.09 1055.38 1055.38 1144.75 1144.75 1259.92 1259.92 1292.18 1292.18
 1298.98 1303.49 1382.47 1434.79 1435.07 1461.25


--------------------------------------------------------------------------------
  K point     63 =   0.062500  0.937500  0.812500  Weight =    0.004
--------------------------------------------------------------------------------

  Frequencies (cm-1) [NB: Negative implies an imaginary mode]:

  237.37  251.22  336.09  918.99  925.49 1002.57 1002.57 1029.25 1029.25
 1063.58 1093.05 1093.05 1157.81 1157.81 1231.78 1231.78 1232.21 1240.05
 1279.44 1279.44 1331.89 1456.72 1457.49 1470.23


--------------------------------------------------------------------------------
  K point     64 =   0.062500  0.937500  0.937500  Weight =    0.004
--------------------------------------------------------------------------------

  Frequencies (cm-1) [NB: Negative implies an imaginary mode]:

  121.26  121.26  186.80 1010.45 1010.45 1010.45 1020.06 1020.06 1020.06
 1133.56 1133.56 1133.56 1165.18 1165.18 1165.18 1201.11 1201.11 1201.11
 1267.77 1267.77 1267.77 1468.64 1468.64 1473.23


--------------------------------------------------------------------------------
  K point     65 =   0.187500  0.062500  0.062500  Weight =    0.004
--------------------------------------------------------------------------------

  Frequencies (cm-1) [NB: Negative implies an imaginary mode]:

  237.37  251.22  336.09  918.99  925.49 1002.57 1002.57 1029.25 1029.25
 1063.58 1093.05 1093.05 1157.81 1157.81 1231.78 1231.78 1232.21 1240.05
 1279.44 1279.44 1331.89 1456.72 1457.49 1470.23


--------------------------------------------------------------------------------
  K point     66 =   0.187500  0.062500  0.187500  Weight =    0.004
--------------------------------------------------------------------------------

  Frequencies (cm-1) [NB: Negative implies an imaginary mode]:

  286.23  330.59  448.12  917.64  917.64  937.08  937.08  971.61 1038.67
 1042.52 1042.52 1071.22 1180.98 1218.66 1227.43 1227.43 1262.72 1262.72
 1302.63 1327.11 1327.11 1442.67 1447.13 1468.87


--------------------------------------------------------------------------------
  K point     67 =   0.187500  0.062500  0.312500  Weight =    0.004
--------------------------------------------------------------------------------

  Frequencies (cm-1) [NB: Negative implies an imaginary mode]:

  398.06  449.93  581.64  802.41  826.50  919.26  944.83  951.45  953.50
 1021.91 1022.50 1054.85 1184.26 1217.66 1241.59 1290.28 1291.81 1312.86
 1317.17 1319.26 1374.05 1419.59 1427.07 1459.72


--------------------------------------------------------------------------------
  K point     68 =   0.187500  0.062500  0.437500  Weight =    0.004
--------------------------------------------------------------------------------

  Frequencies (cm-1) [NB: Negative implies an imaginary mode]:

  533.65  578.68  671.77  705.94  715.04  840.02  921.50  928.06  974.09
  997.52 1019.71 1034.60 1191.78 1204.79 1272.16 1295.96 1315.36 1323.56
 1345.33 1359.18 1387.61 1397.51 1412.58 1441.17


--------------------------------------------------------------------------------
  K point     69 =   0.187500  0.062500  0.562500  Weight =    0.004
--------------------------------------------------------------------------------

  Frequencies (cm-1) [NB: Negative implies an imaginary mode]:

  533.65  578.68  671.77  705.94  715.04  840.02  921.50  928.06  974.09
  997.52 1019.71 1034.60 1191.78 1204.79 1272.16 1295.96 1315.36 1323.56
 1345.33 1359.18 1387.61 1397.51 1412.58 1441.17


--------------------------------------------------------------------------------
  K point     70 =   0.187500  0.062500  0.687500  Weight =    0.004
--------------------------------------------------------------------------------

  Frequencies (cm-1) [NB: Negative implies an imaginary mode]:

  398.06  449.93  581.64  802.41  826.50  919.26  944.83  951.45  953.50
 1021.91 1022.50 1054.85 1184.26 1217.66 1241.59 1290.28 1291.81 1312.86
 1317.17 1319.26 1374.05 1419.59 1427.07 1459.72


--------------------------------------------------------------------------------
  K point     71 =   0.187500  0.062500  0.812500  Weight =    0.004
--------------------------------------------------------------------------------

  Frequencies (cm-1) [NB: Negative implies an imaginary mode]:

  286.23  330.59  448.12  917.64  917.64  937.08  937.08  971.61 1038.67
 1042.52 1042.52 1071.22 1180.98 1218.66 1227.43 1227.43 1262.72 1262.72
 1302.63 1327.11 1327.11 1442.67 1447.13 1468.87


--------------------------------------------------------------------------------
  K point     72 =   0.187500  0.062500  0.937500  Weight =    0.004
--------------------------------------------------------------------------------

  Frequencies (cm-1) [NB: Negative implies an imaginary mode]:

  237.37  251.22  336.09  918.99  925.49 1002.57 1002.57 1029.25 1029.25
 1063.58 1093.05 1093.05 1157.81 1157.81 1231.78 1231.78 1232.21 1240.05
 1279.44 1279.44 1331.89 1456.72 1457.49 1470.23


--------------------------------------------------------------------------------
  K point     73 =   0.187500  0.187500  0.062500  Weight =    0.004
--------------------------------------------------------------------------------

  Frequencies (cm-1) [NB: Negative implies an imaginary mode]:

  286.23  330.59  448.12  917.64  917.64  937.08  937.08  971.61 1038.67
 1042.52 1042.52 1071.22 1180.98 1218.66 1227.43 1227.43 1262.72 1262.72
 1302.63 1327.11 1327.11 1442.67 1447.13 1468.87


--------------------------------------------------------------------------------
  K point     74 =   0.187500  0.187500  0.187500  Weight =    0.004
--------------------------------------------------------------------------------

  Frequencies (cm-1) [NB: Negative implies an imaginary mode]:

  354.12  354.12  540.95  901.11  901.11  901.11  943.82  943.82  943.82
 1036.47 1036.47 1036.47 1230.20 1230.20 1230.20 1270.89 1270.89 1270.89
 1328.03 1328.03 1328.03 1432.19 1432.19 1468.70


--------------------------------------------------------------------------------
  K point     75 =   0.187500  0.187500  0.312500  Weight =    0.004
--------------------------------------------------------------------------------

  Frequencies (cm-1) [NB: Negative implies an imaginary mode]:

  438.96  457.95  656.88  802.48  823.93  888.13  888.13  938.82  938.82
  967.98 1034.36 1034.36 1228.99 1228.99 1287.01 1287.01 1287.13 1317.67
 1327.55 1327.55 1368.47 1410.21 1411.22 1460.30


--------------------------------------------------------------------------------
  K point     76 =   0.187500  0.187500  0.437500  Weight =    0.004
--------------------------------------------------------------------------------

  Frequencies (cm-1) [NB: Negative implies an imaginary mode]:

  559.89  574.22  691.32  692.80  772.52  878.14  881.76  881.76  930.62
  930.62 1035.92 1035.92 1226.77 1226.77 1301.44 1301.44 1324.33 1324.33
 1338.10 1353.47 1379.78 1383.78 1409.36 1440.76


--------------------------------------------------------------------------------
  K point     77 =   0.187500  0.187500  0.562500  Weight =    0.004
--------------------------------------------------------------------------------

  Frequencies (cm-1) [NB: Negative implies an imaginary mode]:

  559.89  574.22  691.32  692.80  772.52  878.14  881.76  881.76  930.62
  930.62 1035.92 1035.92 1226.77 1226.77 1301.44 1301.44 1324.33 1324.33
 1338.10 1353.47 1379.78 1383.78 1409.36 1440.76


--------------------------------------------------------------------------------
  K point     78 =   0.187500  0.187500  0.687500  Weight =    0.004
--------------------------------------------------------------------------------

  Frequencies (cm-1) [NB: Negative implies an imaginary mode]:

  438.96  457.95  656.88  802.48  823.93  888.13  888.13  938.82  938.82
  967.98 1034.36 1034.36 1228.99 1228.99 1287.01 1287.01 1287.13 1317.67
 1327.55 1327.55 1368.47 1410.21 1411.22 1460.30


--------------------------------------------------------------------------------
  K point     79 =   0.187500  0.187500  0.812500  Weight =    0.004
--------------------------------------------------------------------------------

  Frequencies (cm-1) [NB: Negative implies an imaginary mode]:

  354.12  354.12  540.95  901.11  901.11  901.11  943.82  943.82  943.82
 1036.47 1036.47 1036.47 1230.20 1230.20 1230.20 1270.89 1270.89 1270.89
 1328.03 1328.03 1328.03 1432.19 1432.19 1468.70


--------------------------------------------------------------------------------
  K point     80 =   0.187500  0.187500  0.937500  Weight =    0.004
--------------------------------------------------------------------------------

  Frequencies (cm-1) [NB: Negative implies an imaginary mode]:

  286.23  330.59  448.12  917.64  917.64  937.08  937.08  971.61 1038.67
 1042.52 1042.52 1071.22 1180.98 1218.66 1227.43 1227.43 1262.72 1262.72
 1302.63 1327.11 1327.11 1442.67 1447.13 1468.87


--------------------------------------------------------------------------------
  K point     81 =   0.187500  0.312500  0.062500  Weight =    0.004
--------------------------------------------------------------------------------

  Frequencies (cm-1) [NB: Negative implies an imaginary mode]:

  398.06  449.93  581.64  802.41  826.50  919.26  944.83  951.45  953.50
 1021.91 1022.50 1054.85 1184.26 1217.66 1241.59 1290.28 1291.81 1312.86
 1317.17 1319.26 1374.05 1419.59 1427.07 1459.72


--------------------------------------------------------------------------------
  K point     82 =   0.187500  0.312500  0.187500  Weight =    0.004
--------------------------------------------------------------------------------

  Frequencies (cm-1) [NB: Negative implies an imaginary mode]:

  438.96  457.95  656.88  802.48  823.93  888.13  888.13  938.82  938.82
  967.98 1034.36 1034.36 1228.99 1228.99 1287.01 1287.01 1287.13 1317.67
 1327.55 1327.55 1368.47 1410.21 1411.22 1460.30


--------------------------------------------------------------------------------
  K point     83 =   0.187500  0.312500  0.312500  Weight =    0.004
--------------------------------------------------------------------------------

  Frequencies (cm-1) [NB: Negative implies an imaginary mode]:

  493.85  530.25  752.32  798.60  798.60  834.56  834.56  850.74  912.76
  991.57  991.57 1039.80 1242.08 1278.09 1278.09 1295.85 1325.02 1325.02
 1336.16 1357.47 1357.47 1386.80 1393.56 1452.67


--------------------------------------------------------------------------------
  K point     84 =   0.187500  0.312500  0.437500  Weight =    0.004
--------------------------------------------------------------------------------

  Frequencies (cm-1) [NB: Negative implies an imaginary mode]:

  582.49  626.28  690.80  729.18  802.30  820.02  845.98  855.77  883.17
  927.70 1014.78 1032.45 1253.81 1266.23 1314.83 1322.06 1328.70 1339.80
 1343.85 1347.01 1357.98 1370.49 1400.32 1433.04


--------------------------------------------------------------------------------
  K point     85 =   0.187500  0.312500  0.562500  Weight =    0.004
--------------------------------------------------------------------------------

  Frequencies (cm-1) [NB: Negative implies an imaginary mode]:

  582.49  626.28  690.80  729.18  802.30  820.02  845.98  855.77  883.17
  927.70 1014.78 1032.45 1253.81 1266.23 1314.83 1322.06 1328.70 1339.80
 1343.85 1347.01 1357.98 1370.49 1400.32 1433.04


--------------------------------------------------------------------------------
  K point     86 =   0.187500  0.312500  0.687500  Weight =    0.004
--------------------------------------------------------------------------------

  Frequencies (cm-1) [NB: Negative implies an imaginary mode]:

  493.85  530.25  752.32  798.60  798.60  834.56  834.56  850.74  912.76
  991.57  991.57 1039.80 1242.08 1278.09 1278.09 1295.85 1325.02 1325.02
 1336.16 1357.47 1357.47 1386.80 1393.56 1452.67


--------------------------------------------------------------------------------
  K point     87 =   0.187500  0.312500  0.812500  Weight =    0.004
--------------------------------------------------------------------------------

  Frequencies (cm-1) [NB: Negative implies an imaginary mode]:

  438.96  457.95  656.88  802.48  823.93  888.13  888.13  938.82  938.82
  967.98 1034.36 1034.36 1228.99 1228.99 1287.01 1287.01 1287.13 1317.67
 1327.55 1327.55 1368.47 1410.21 1411.22 1460.30


--------------------------------------------------------------------------------
  K point     88 =   0.187500  0.312500  0.937500  Weight =    0.004
--------------------------------------------------------------------------------

  Frequencies (cm-1) [NB: Negative implies an imaginary mode]:

  398.06  449.93  581.64  802.41  826.50  919.26  944.83  951.45  953.50
 1021.91 1022.50 1054.85 1184.26 1217.66 1241.59 1290.28 1291.81 1312.86
 1317.17 1319.26 1374.05 1419.59 1427.07 1459.72


--------------------------------------------------------------------------------
  K point     89 =   0.187500  0.437500  0.062500  Weight =    0.004
--------------------------------------------------------------------------------

  Frequencies (cm-1) [NB: Negative implies an imaginary mode]:

  533.65  578.68  671.77  705.94  715.04  840.02  921.50  928.06  974.09
  997.52 1019.71 1034.60 1191.78 1204.79 1272.16 1295.96 1315.36 1323.56
 1345.33 1359.18 1387.61 1397.51 1412.58 1441.17


--------------------------------------------------------------------------------
  K point     90 =   0.187500  0.437500  0.187500  Weight =    0.004
--------------------------------------------------------------------------------

  Frequencies (cm-1) [NB: Negative implies an imaginary mode]:

  559.89  574.22  691.32  692.80  772.52  878.14  881.76  881.76  930.62
  930.62 1035.92 1035.92 1226.77 1226.77 1301.44 1301.44 1324.33 1324.33
 1338.10 1353.47 1379.78 1383.78 1409.36 1440.76


--------------------------------------------------------------------------------
  K point     91 =   0.187500  0.437500  0.312500  Weight =    0.004
--------------------------------------------------------------------------------

  Frequencies (cm-1) [NB: Negative implies an imaginary mode]:

  582.49  626.28  690.80  729.18  802.30  820.02  845.98  855.77  883.17
  927.70 1014.78 1032.45 1253.81 1266.23 1314.83 1322.06 1328.70 1339.80
 1343.85 1347.01 1357.98 1370.49 1400.32 1433.04


--------------------------------------------------------------------------------
  K point     92 =   0.187500  0.437500  0.437500  Weight =    0.004
--------------------------------------------------------------------------------

  Frequencies (cm-1) [NB: Negative implies an imaginary mode]:

  635.22  698.73  713.53  713.53  759.33  777.54  777.54  830.84  916.34
  974.30  974.30 1010.76 1278.10 1300.96 1300.96 1329.04 1331.05 1339.41
 1339.41 1354.87 1361.61 1383.89 1383.89 1414.33


--------------------------------------------------------------------------------
  K point     93 =   0.187500  0.437500  0.562500  Weight =    0.004
--------------------------------------------------------------------------------

  Frequencies (cm-1) [NB: Negative implies an imaginary mode]:

  635.22  698.73  713.53  713.53  759.33  777.54  777.54  830.84  916.34
  974.30  974.30 1010.76 1278.10 1300.96 1300.96 1329.04 1331.05 1339.41
 1339.41 1354.87 1361.61 1383.89 1383.89 1414.33


--------------------------------------------------------------------------------
  K point     94 =   0.187500  0.437500  0.687500  Weight =    0.004
--------------------------------------------------------------------------------

  Frequencies (cm-1) [NB: Negative implies an imaginary mode]:

  582.49  626.28  690.80  729.18  802.30  820.02  845.98  855.77  883.17
  927.70 1014.78 1032.45 1253.81 1266.23 1314.83 1322.06 1328.70 1339.80
 1343.85 1347.01 1357.98 1370.49 1400.32 1433.04


--------------------------------------------------------------------------------
  K point     95 =   0.187500  0.437500  0.812500  Weight =    0.004
--------------------------------------------------------------------------------

  Frequencies (cm-1) [NB: Negative implies an imaginary mode]:

  559.89  574.22  691.32  692.80  772.52  878.14  881.76  881.76  930.62
  930.62 1035.92 1035.92 1226.77 1226.77 1301.44 1301.44 1324.33 1324.33
 1338.10 1353.47 1379.78 1383.78 1409.36 1440.76


--------------------------------------------------------------------------------
  K point     96 =   0.187500  0.437500  0.937500  Weight =    0.004
--------------------------------------------------------------------------------

  Frequencies (cm-1) [NB: Negative implies an imaginary mode]:

  533.65  578.68  671.77  705.94  715.04  840.02  921.50  928.06  974.09
  997.52 1019.71 1034.60 1191.78 1204.79 1272.16 1295.96 1315.36 1323.56
 1345.33 1359.18 1387.61 1397.51 1412.58 1441.17


--------------------------------------------------------------------------------
  K point     97 =   0.187500  0.562500  0.062500  Weight =    0.004
--------------------------------------------------------------------------------

  Frequencies (cm-1) [NB: Negative implies an imaginary mode]:

  533.65  578.68  671.77  705.94  715.04  840.02  921.50  928.06  974.09
  997.52 1019.71 1034.60 1191.78 1204.79 1272.16 1295.96 1315.36 1323.56
 1345.33 1359.18 1387.61 1397.51 1412.58 1441.17


--------------------------------------------------------------------------------
  K point     98 =   0.187500  0.562500  0.187500  Weight =    0.004
--------------------------------------------------------------------------------

  Frequencies (cm-1) [NB: Negative implies an imaginary mode]:

  559.89  574.22  691.32  692.80  772.52  878.14  881.76  881.76  930.62
  930.62 1035.92 1035.92 1226.77 1226.77 1301.44 1301.44 1324.33 1324.33
 1338.10 1353.47 1379.78 1383.78 1409.36 1440.76


--------------------------------------------------------------------------------
  K point     99 =   0.187500  0.562500  0.312500  Weight =    0.004
--------------------------------------------------------------------------------

  Frequencies (cm-1) [NB: Negative implies an imaginary mode]:

  582.49  626.28  690.80  729.18  802.30  820.02  845.98  855.77  883.17
  927.70 1014.78 1032.45 1253.81 1266.23 1314.83 1322.06 1328.70 1339.80
 1343.85 1347.01 1357.98 1370.49 1400.32 1433.04


--------------------------------------------------------------------------------
  K point    100 =   0.187500  0.562500  0.437500  Weight =    0.004
--------------------------------------------------------------------------------

  Frequencies (cm-1) [NB: Negative implies an imaginary mode]:

  635.22  698.73  713.53  713.53  759.33  777.54  777.54  830.84  916.34
  974.30  974.30 1010.76 1278.10 1300.96 1300.96 1329.04 1331.05 1339.41
 1339.41 1354.87 1361.61 1383.89 1383.89 1414.33


--------------------------------------------------------------------------------
  K point    101 =   0.187500  0.562500  0.562500  Weight =    0.004
--------------------------------------------------------------------------------

  Frequencies (cm-1) [NB: Negative implies an imaginary mode]:

  635.22  698.73  713.53  713.53  759.33  777.54  777.54  830.84  916.34
  974.30  974.30 1010.76 1278.10 1300.96 1300.96 1329.04 1331.05 1339.41
 1339.41 1354.87 1361.61 1383.89 1383.89 1414.33


--------------------------------------------------------------------------------
  K point    102 =   0.187500  0.562500  0.687500  Weight =    0.004
--------------------------------------------------------------------------------

  Frequencies (cm-1) [NB: Negative implies an imaginary mode]:

  582.49  626.28  690.80  729.18  802.30  820.02  845.98  855.77  883.17
  927.70 1014.78 1032.45 1253.81 1266.23 1314.83 1322.06 1328.70 1339.80
 1343.85 1347.01 1357.98 1370.49 1400.32 1433.04


--------------------------------------------------------------------------------
  K point    103 =   0.187500  0.562500  0.812500  Weight =    0.004
--------------------------------------------------------------------------------

  Frequencies (cm-1) [NB: Negative implies an imaginary mode]:

  559.89  574.22  691.32  692.80  772.52  878.14  881.76  881.76  930.62
  930.62 1035.92 1035.92 1226.77 1226.77 1301.44 1301.44 1324.33 1324.33
 1338.10 1353.47 1379.78 1383.78 1409.36 1440.76


--------------------------------------------------------------------------------
  K point    104 =   0.187500  0.562500  0.937500  Weight =    0.004
--------------------------------------------------------------------------------

  Frequencies (cm-1) [NB: Negative implies an imaginary mode]:

  533.65  578.68  671.77  705.94  715.04  840.02  921.50  928.06  974.09
  997.52 1019.71 1034.60 1191.78 1204.79 1272.16 1295.96 1315.36 1323.56
 1345.33 1359.18 1387.61 1397.51 1412.58 1441.17


--------------------------------------------------------------------------------
  K point    105 =   0.187500  0.687500  0.062500  Weight =    0.004
--------------------------------------------------------------------------------

  Frequencies (cm-1) [NB: Negative implies an imaginary mode]:

  398.06  449.93  581.64  802.41  826.50  919.26  944.83  951.45  953.50
 1021.91 1022.50 1054.85 1184.26 1217.66 1241.59 1290.28 1291.81 1312.86
 1317.17 1319.26 1374.05 1419.59 1427.07 1459.72


--------------------------------------------------------------------------------
  K point    106 =   0.187500  0.687500  0.187500  Weight =    0.004
--------------------------------------------------------------------------------

  Frequencies (cm-1) [NB: Negative implies an imaginary mode]:

  438.96  457.95  656.88  802.48  823.93  888.13  888.13  938.82  938.82
[...]
--------------------------------------------------------------------------------
  Zero point energy            =        1.600543 eV
  Entropy                      =        0.000002 eV/K
                               =        0.229908 J/(mol.K)
  Helmholtz free-energy        =      -57.221497 eV
                               =    -5520.999228 kJmol-1
  Free energy (equipartition)  =      -58.339649 eV
  - T*S       (equipartition)  =        0.316894 eV
  Uvib        (equipartition)  =        0.165453 eV
  Mean kinetic energy          =        0.800345 eV
  Heat capacity - const volume =        0.000008 eV/K
                               =        0.737315 J/(mol.K)
--------------------------------------------------------------------------------
  Phonon properties (per mole of unit cells): Temperature =     90.000 K
--------------------------------------------------------------------------------
  Zero point energy            =        1.600543 eV
  Entropy                      =        0.000003 eV/K
                               =        0.335201 J/(mol.K)
  Helmholtz free-energy        =      -57.221526 eV
                               =    -5521.002031 kJmol-1
  Free energy (equipartition)  =      -58.301279 eV
  - T*S       (equipartition)  =        0.334582 eV
  Uvib        (equipartition)  =        0.186134 eV
  Mean kinetic energy          =        0.800391 eV
  Heat capacity - const volume =        0.000011 eV/K
                               =        1.072393 J/(mol.K)
--------------------------------------------------------------------------------
  Phonon properties (per mole of unit cells): Temperature =    100.000 K
--------------------------------------------------------------------------------
  Zero point energy            =        1.600543 eV
  Entropy                      =        0.000005 eV/K
                               =        0.469749 J/(mol.K)
  Helmholtz free-energy        =      -57.221567 eV
                               =    -5521.006030 kJmol-1
  Free energy (equipartition)  =      -58.265212 eV
  - T*S       (equipartition)  =        0.349968 eV
  Uvib        (equipartition)  =        0.206816 eV
  Mean kinetic energy          =        0.800458 eV
  Heat capacity - const volume =        0.000016 eV/K
                               =        1.507379 J/(mol.K)
--------------------------------------------------------------------------------
  Phonon properties (per mole of unit cells): Temperature =    110.000 K
--------------------------------------------------------------------------------
  Zero point energy            =        1.600543 eV
  Entropy                      =        0.000007 eV/K
                               =        0.638313 J/(mol.K)
  Helmholtz free-energy        =      -57.221624 eV
                               =    -5521.011540 kJmol-1
  Free energy (equipartition)  =      -58.231216 eV
  - T*S       (equipartition)  =        0.363282 eV
  Uvib        (equipartition)  =        0.227498 eV
  Mean kinetic energy          =        0.800550 eV
  Heat capacity - const volume =        0.000021 eV/K
                               =        2.059469 J/(mol.K)
--------------------------------------------------------------------------------
  Phonon properties (per mole of unit cells): Temperature =    120.000 K
--------------------------------------------------------------------------------
  Zero point energy            =        1.600543 eV
  Entropy                      =        0.000009 eV/K
                               =        0.845877 J/(mol.K)
  Helmholtz free-energy        =      -57.221701 eV
                               =    -5521.018926 kJmol-1
  Free energy (equipartition)  =      -58.199103 eV
  - T*S       (equipartition)  =        0.374713 eV
  Uvib        (equipartition)  =        0.248179 eV
  Mean kinetic energy          =        0.800673 eV
  Heat capacity - const volume =        0.000028 eV/K
                               =        2.744897 J/(mol.K)
--------------------------------------------------------------------------------
  Phonon properties (per mole of unit cells): Temperature =    130.000 K
--------------------------------------------------------------------------------
  Zero point energy            =        1.600543 eV
  Entropy                      =        0.000011 eV/K
                               =        1.097450 J/(mol.K)
  Helmholtz free-energy        =      -57.221801 eV
                               =    -5521.028604 kJmol-1
  Free energy (equipartition)  =      -58.168716 eV
  - T*S       (equipartition)  =        0.384419 eV
  Uvib        (equipartition)  =        0.268861 eV
  Mean kinetic energy          =        0.800837 eV
  Heat capacity - const volume =        0.000037 eV/K
                               =        3.577750 J/(mol.K)
--------------------------------------------------------------------------------
  Phonon properties (per mole of unit cells): Temperature =    140.000 K
--------------------------------------------------------------------------------
  Zero point energy            =        1.600543 eV
  Entropy                      =        0.000014 eV/K
                               =        1.397865 J/(mol.K)
  Helmholtz free-energy        =      -57.221930 eV
                               =    -5521.041038 kJmol-1
  Free energy (equipartition)  =      -58.139921 eV
  - T*S       (equipartition)  =        0.392532 eV
  Uvib        (equipartition)  =        0.289542 eV
  Mean kinetic energy          =        0.801047 eV
  Heat capacity - const volume =        0.000047 eV/K
                               =        4.569166 J/(mol.K)
--------------------------------------------------------------------------------
  Phonon properties (per mole of unit cells): Temperature =    150.000 K
--------------------------------------------------------------------------------
  Zero point energy            =        1.600543 eV
  Entropy                      =        0.000018 eV/K
                               =        1.751612 J/(mol.K)
  Helmholtz free-energy        =      -57.222093 eV
                               =    -5521.056739 kJmol-1
  Free energy (equipartition)  =      -58.112605 eV
  - T*S       (equipartition)  =        0.399167 eV
  Uvib        (equipartition)  =        0.310224 eV
  Mean kinetic energy          =        0.801313 eV
  Heat capacity - const volume =        0.000059 eV/K
                               =        5.726962 J/(mol.K)
--------------------------------------------------------------------------------
  Phonon properties (per mole of unit cells): Temperature =    160.000 K
--------------------------------------------------------------------------------
  Zero point energy            =        1.600543 eV
  Entropy                      =        0.000022 eV/K
                               =        2.162710 J/(mol.K)
  Helmholtz free-energy        =      -57.222295 eV
                               =    -5521.076261 kJmol-1
  Free energy (equipartition)  =      -58.086668 eV
  - T*S       (equipartition)  =        0.404422 eV
  Uvib        (equipartition)  =        0.330906 eV
  Mean kinetic energy          =        0.801643 eV
  Heat capacity - const volume =        0.000073 eV/K
                               =        7.055586 J/(mol.K)
--------------------------------------------------------------------------------
  Phonon properties (per mole of unit cells): Temperature =    170.000 K
--------------------------------------------------------------------------------
  Zero point energy            =        1.600543 eV
  Entropy                      =        0.000027 eV/K
                               =        2.634614 J/(mol.K)
  Helmholtz free-energy        =      -57.222543 eV
                               =    -5521.100196 kJmol-1
  Free energy (equipartition)  =      -58.062025 eV
  - T*S       (equipartition)  =        0.408383 eV
  Uvib        (equipartition)  =        0.351587 eV
  Mean kinetic energy          =        0.802047 eV
  Heat capacity - const volume =        0.000089 eV/K
                               =        8.556285 J/(mol.K)
--------------------------------------------------------------------------------
  Phonon properties (per mole of unit cells): Temperature =    180.000 K
--------------------------------------------------------------------------------
  Zero point energy            =        1.600543 eV
  Entropy                      =        0.000033 eV/K
                               =        3.170178 J/(mol.K)
  Helmholtz free-energy        =      -57.222843 eV
                               =    -5521.129166 kJmol-1
  Free energy (equipartition)  =      -58.038599 eV
  - T*S       (equipartition)  =        0.411128 eV
  Uvib        (equipartition)  =        0.372269 eV
  Mean kinetic energy          =        0.802533 eV
  Heat capacity - const volume =        0.000106 eV/K
                               =       10.227390 J/(mol.K)
--------------------------------------------------------------------------------
  Phonon properties (per mole of unit cells): Temperature =    190.000 K
--------------------------------------------------------------------------------
  Zero point energy            =        1.600543 eV
  Entropy                      =        0.000039 eV/K
                               =        3.771630 J/(mol.K)
  Helmholtz free-energy        =      -57.223202 eV
                               =    -5521.163819 kJmol-1
  Free energy (equipartition)  =      -58.016323 eV
  - T*S       (equipartition)  =        0.412722 eV
  Uvib        (equipartition)  =        0.392951 eV
  Mean kinetic energy          =        0.803110 eV
  Heat capacity - const volume =        0.000125 eV/K
                               =       12.064652 J/(mol.K)
--------------------------------------------------------------------------------
  Phonon properties (per mole of unit cells): Temperature =    200.000 K
--------------------------------------------------------------------------------
  Zero point energy            =        1.600543 eV
  Entropy                      =        0.000046 eV/K
                               =        4.440576 J/(mol.K)
  Helmholtz free-energy        =      -57.223627 eV
                               =    -5521.204823 kJmol-1
  Free energy (equipartition)  =      -57.995136 eV
  - T*S       (equipartition)  =        0.413228 eV
  Uvib        (equipartition)  =        0.413632 eV
  Mean kinetic energy          =        0.803786 eV
  Heat capacity - const volume =        0.000146 eV/K
                               =       14.061602 J/(mol.K)
--------------------------------------------------------------------------------
  Phonon properties (per mole of unit cells): Temperature =    210.000 K
--------------------------------------------------------------------------------
  Zero point energy            =        1.600543 eV
  Entropy                      =        0.000054 eV/K
                               =        5.178030 J/(mol.K)
  Helmholtz free-energy        =      -57.224125 eV
                               =    -5521.252859 kJmol-1
  Free energy (equipartition)  =      -57.974983 eV
  - T*S       (equipartition)  =        0.412699 eV
  Uvib        (equipartition)  =        0.434314 eV
  Mean kinetic energy          =        0.804570 eV
  Heat capacity - const volume =        0.000168 eV/K
                               =       16.209904 J/(mol.K)
--------------------------------------------------------------------------------
  Phonon properties (per mole of unit cells): Temperature =    220.000 K
--------------------------------------------------------------------------------
  Zero point energy            =        1.600543 eV
  Entropy                      =        0.000062 eV/K
                               =        5.984435 J/(mol.K)
  Helmholtz free-energy        =      -57.224703 eV
                               =    -5521.308614 kJmol-1
  Free energy (equipartition)  =      -57.955815 eV
  - T*S       (equipartition)  =        0.411185 eV
  Uvib        (equipartition)  =        0.454995 eV
  Mean kinetic energy          =        0.805469 eV
  Heat capacity - const volume =        0.000192 eV/K
                               =       18.499702 J/(mol.K)
--------------------------------------------------------------------------------
  Phonon properties (per mole of unit cells): Temperature =    230.000 K
--------------------------------------------------------------------------------
  Zero point energy            =        1.600543 eV
  Entropy                      =        0.000071 eV/K
                               =        6.859711 J/(mol.K)
  Helmholtz free-energy        =      -57.225368 eV
                               =    -5521.372777 kJmol-1
  Free energy (equipartition)  =      -57.937588 eV
  - T*S       (equipartition)  =        0.408730 eV
  Uvib        (equipartition)  =        0.475677 eV
  Mean kinetic energy          =        0.806490 eV
  Heat capacity - const volume =        0.000217 eV/K
                               =       20.919954 J/(mol.K)
--------------------------------------------------------------------------------
  Phonon properties (per mole of unit cells): Temperature =    240.000 K
--------------------------------------------------------------------------------
  Zero point energy            =        1.600543 eV
  Entropy                      =        0.000081 eV/K
                               =        7.803300 J/(mol.K)
  Helmholtz free-energy        =      -57.226127 eV
                               =    -5521.446036 kJmol-1
  Free energy (equipartition)  =      -57.920260 eV
  - T*S       (equipartition)  =        0.405377 eV
  Uvib        (equipartition)  =        0.496359 eV
  Mean kinetic energy          =        0.807639 eV
  Heat capacity - const volume =        0.000243 eV/K
                               =       23.458747 J/(mol.K)
--------------------------------------------------------------------------------
  Phonon properties (per mole of unit cells): Temperature =    250.000 K
--------------------------------------------------------------------------------
  Zero point energy            =        1.600543 eV
  Entropy                      =        0.000091 eV/K
                               =        8.814210 J/(mol.K)
  Helmholtz free-energy        =      -57.226988 eV
                               =    -5521.529068 kJmol-1
  Free energy (equipartition)  =      -57.903795 eV
  - T*S       (equipartition)  =        0.401161 eV
  Uvib        (equipartition)  =        0.517040 eV
  Mean kinetic energy          =        0.808923 eV
  Heat capacity - const volume =        0.000271 eV/K
                               =       26.103595 J/(mol.K)
--------------------------------------------------------------------------------
  Phonon properties (per mole of unit cells): Temperature =    260.000 K
--------------------------------------------------------------------------------
  Zero point energy            =        1.600543 eV
  Entropy                      =        0.000103 eV/K
                               =        9.891072 J/(mol.K)
  Helmholtz free-energy        =      -57.227957 eV
                               =    -5521.622540 kJmol-1
  Free energy (equipartition)  =      -57.888157 eV
  - T*S       (equipartition)  =        0.396117 eV
  Uvib        (equipartition)  =        0.537722 eV
  Mean kinetic energy          =        0.810346 eV
  Heat capacity - const volume =        0.000299 eV/K
                               =       28.841705 J/(mol.K)
--------------------------------------------------------------------------------
  Phonon properties (per mole of unit cells): Temperature =    270.000 K
--------------------------------------------------------------------------------
  Zero point energy            =        1.600543 eV
  Entropy                      =        0.000114 eV/K
                               =       11.032186 J/(mol.K)
  Helmholtz free-energy        =      -57.229041 eV
                               =    -5521.727103 kJmol-1
  Free energy (equipartition)  =      -57.873314 eV
  - T*S       (equipartition)  =        0.390278 eV
  Uvib        (equipartition)  =        0.558403 eV
  Mean kinetic energy          =        0.811914 eV
  Heat capacity - const volume =        0.000328 eV/K
                               =       31.660219 J/(mol.K)
--------------------------------------------------------------------------------
  Phonon properties (per mole of unit cells): Temperature =    280.000 K
--------------------------------------------------------------------------------
  Zero point energy            =        1.600543 eV
  Entropy                      =        0.000127 eV/K
                               =       12.235572 J/(mol.K)
  Helmholtz free-energy        =      -57.230246 eV
                               =    -5521.843391 kJmol-1
  Free energy (equipartition)  =      -57.859238 eV
  - T*S       (equipartition)  =        0.383673 eV
  Uvib        (equipartition)  =        0.579085 eV
  Mean kinetic energy          =        0.813629 eV
  Heat capacity - const volume =        0.000358 eV/K
                               =       34.546422 J/(mol.K)
--------------------------------------------------------------------------------
  Phonon properties (per mole of unit cells): Temperature =    290.000 K
--------------------------------------------------------------------------------
  Zero point energy            =        1.600543 eV
  Entropy                      =        0.000140 eV/K
                               =       13.499016 J/(mol.K)
  Helmholtz free-energy        =      -57.231579 eV
                               =    -5521.972015 kJmol-1
  Free energy (equipartition)  =      -57.845900 eV
  - T*S       (equipartition)  =        0.376329 eV
  Uvib        (equipartition)  =        0.599767 eV
  Mean kinetic energy          =        0.815495 eV
  Heat capacity - const volume =        0.000389 eV/K
                               =       37.487918 J/(mol.K)
--------------------------------------------------------------------------------
  Phonon properties (per mole of unit cells): Temperature =    300.000 K
--------------------------------------------------------------------------------
  Zero point energy            =        1.600543 eV
  Entropy                      =        0.000154 eV/K
                               =       14.820118 J/(mol.K)
  Helmholtz free-energy        =      -57.233046 eV
                               =    -5522.113564 kJmol-1
  Free energy (equipartition)  =      -57.833276 eV
  - T*S       (equipartition)  =        0.368272 eV
  Uvib        (equipartition)  =        0.620448 eV
  Mean kinetic energy          =        0.817515 eV
  Heat capacity - const volume =        0.000419 eV/K
                               =       40.472779 J/(mol.K)
--------------------------------------------------------------------------------

  Time to end of properties =      13.8412 seconds


  Peak dynamic memory used =       1.93 MB 


  Timing analysis for GULP :

--------------------------------------------------------------------------------
  Task / Subroutine                                          Time (Seconds)
--------------------------------------------------------------------------------
  Calculation of real space energy and derivatives                0.0039
  Calculation of Brenner energy and derivatives                  13.5560
  Calculation of phonons                                         13.7588
  Disk read/write operations to scratch files                     0.0415
--------------------------------------------------------------------------------
  Total CPU time                                                 13.8414
--------------------------------------------------------------------------------


  Job Finished at 13:03.06 31st July       2020                               

