********************************************************************************
*                       GENERAL UTILITY LATTICE PROGRAM                        *
*                                 Julian Gale                                  *
*                       Curtin Institute for Computation                       *
*                           Department of Chemistry                            *
*                    Curtin University, Western Australia                      *
********************************************************************************
* Version = 5.1.0 * Last modified = 25th January 2020                          *
********************************************************************************
*  single       - perform a single point run                                   *
*  property     - calculate properties for final geometry                      *
*  phonon       - calculate phonons for final geometry                         *
********************************************************************************
* ASE calculation                                                              *
********************************************************************************


  Job Started  at 18:11.05 14th August     2020                               

  Number of CPUs =     1


  Total number of configurations input =      1

********************************************************************************
*  Input for Configuration =   1                                               *
********************************************************************************

  Formula = C8                                                          

  Number of irreducible atoms/shells =       8


  Total number atoms/shells =       8

  Dimensionality = 3               :  Bulk   



  Cartesian lattice vectors (Angstroms) :

        3.622766    0.000000    0.000000
        0.000000    3.622766    0.000000
        0.000000    0.000000    3.622766

  Cell parameters (Angstroms/Degrees):

  a =       3.6228    alpha =  90.0000
  b =       3.6228    beta  =  90.0000
  c =       3.6228    gamma =  90.0000

  Initial cell volume =          47.546751 Angs**3

  Shrinking factors =      8     8     8

  Temperature of configuration =  10.00     K 

  Pressure of configuration =         0.000 GPa 

  Fractional coordinates of asymmetric unit :

--------------------------------------------------------------------------------
   No.  Atomic       x           y          z         Charge      Occupancy
        Label      (Frac)      (Frac)     (Frac)        (e)         (Frac)  
--------------------------------------------------------------------------------
      1 C     c    0.000000    0.000000    0.000000     0.00000    1.000000    
      2 C     c    0.000000    0.500000    0.500000     0.00000    1.000000    
      3 C     c    0.500000    0.500000    0.000000     0.00000    1.000000    
      4 C     c    0.500000    0.000000    0.500000     0.00000    1.000000    
      5 C     c    0.750000    0.250000    0.750000     0.00000    1.000000    
      6 C     c    0.250000    0.250000    0.250000     0.00000    1.000000    
      7 C     c    0.250000    0.750000    0.750000     0.00000    1.000000    
      8 C     c    0.750000    0.750000    0.250000     0.00000    1.000000    
--------------------------------------------------------------------------------


  Brillouin zone sampling points :

--------------------------------------------------------------------------------
  Point number          x          y          z            Weight
--------------------------------------------------------------------------------
        1           0.062500   0.062500   0.062500     0.00390625
        2           0.062500   0.062500   0.187500     0.00390625
        3           0.062500   0.062500   0.312500     0.00390625
        4           0.062500   0.062500   0.437500     0.00390625
        5           0.062500   0.062500   0.562500     0.00390625
        6           0.062500   0.062500   0.687500     0.00390625
        7           0.062500   0.062500   0.812500     0.00390625
        8           0.062500   0.062500   0.937500     0.00390625
        9           0.062500   0.187500   0.062500     0.00390625
       10           0.062500   0.187500   0.187500     0.00390625
       11           0.062500   0.187500   0.312500     0.00390625
       12           0.062500   0.187500   0.437500     0.00390625
       13           0.062500   0.187500   0.562500     0.00390625
       14           0.062500   0.187500   0.687500     0.00390625
       15           0.062500   0.187500   0.812500     0.00390625
       16           0.062500   0.187500   0.937500     0.00390625
       17           0.062500   0.312500   0.062500     0.00390625
       18           0.062500   0.312500   0.187500     0.00390625
       19           0.062500   0.312500   0.312500     0.00390625
       20           0.062500   0.312500   0.437500     0.00390625
       21           0.062500   0.312500   0.562500     0.00390625
       22           0.062500   0.312500   0.687500     0.00390625
       23           0.062500   0.312500   0.812500     0.00390625
       24           0.062500   0.312500   0.937500     0.00390625
       25           0.062500   0.437500   0.062500     0.00390625
       26           0.062500   0.437500   0.187500     0.00390625
       27           0.062500   0.437500   0.312500     0.00390625
       28           0.062500   0.437500   0.437500     0.00390625
       29           0.062500   0.437500   0.562500     0.00390625
       30           0.062500   0.437500   0.687500     0.00390625
       31           0.062500   0.437500   0.812500     0.00390625
       32           0.062500   0.437500   0.937500     0.00390625
       33           0.062500   0.562500   0.062500     0.00390625
       34           0.062500   0.562500   0.187500     0.00390625
       35           0.062500   0.562500   0.312500     0.00390625
       36           0.062500   0.562500   0.437500     0.00390625
       37           0.062500   0.562500   0.562500     0.00390625
       38           0.062500   0.562500   0.687500     0.00390625
       39           0.062500   0.562500   0.812500     0.00390625
       40           0.062500   0.562500   0.937500     0.00390625
       41           0.062500   0.687500   0.062500     0.00390625
       42           0.062500   0.687500   0.187500     0.00390625
       43           0.062500   0.687500   0.312500     0.00390625
       44           0.062500   0.687500   0.437500     0.00390625
       45           0.062500   0.687500   0.562500     0.00390625
       46           0.062500   0.687500   0.687500     0.00390625
       47           0.062500   0.687500   0.812500     0.00390625
       48           0.062500   0.687500   0.937500     0.00390625
       49           0.062500   0.812500   0.062500     0.00390625
       50           0.062500   0.812500   0.187500     0.00390625
       51           0.062500   0.812500   0.312500     0.00390625
       52           0.062500   0.812500   0.437500     0.00390625
       53           0.062500   0.812500   0.562500     0.00390625
       54           0.062500   0.812500   0.687500     0.00390625
       55           0.062500   0.812500   0.812500     0.00390625
       56           0.062500   0.812500   0.937500     0.00390625
       57           0.062500   0.937500   0.062500     0.00390625
       58           0.062500   0.937500   0.187500     0.00390625
       59           0.062500   0.937500   0.312500     0.00390625
       60           0.062500   0.937500   0.437500     0.00390625
       61           0.062500   0.937500   0.562500     0.00390625
       62           0.062500   0.937500   0.687500     0.00390625
       63           0.062500   0.937500   0.812500     0.00390625
       64           0.062500   0.937500   0.937500     0.00390625
       65           0.187500   0.062500   0.062500     0.00390625
       66           0.187500   0.062500   0.187500     0.00390625
       67           0.187500   0.062500   0.312500     0.00390625
       68           0.187500   0.062500   0.437500     0.00390625
       69           0.187500   0.062500   0.562500     0.00390625
       70           0.187500   0.062500   0.687500     0.00390625
       71           0.187500   0.062500   0.812500     0.00390625
       72           0.187500   0.062500   0.937500     0.00390625
       73           0.187500   0.187500   0.062500     0.00390625
       74           0.187500   0.187500   0.187500     0.00390625
       75           0.187500   0.187500   0.312500     0.00390625
       76           0.187500   0.187500   0.437500     0.00390625
       77           0.187500   0.187500   0.562500     0.00390625
       78           0.187500   0.187500   0.687500     0.00390625
       79           0.187500   0.187500   0.812500     0.00390625
       80           0.187500   0.187500   0.937500     0.00390625
       81           0.187500   0.312500   0.062500     0.00390625
       82           0.187500   0.312500   0.187500     0.00390625
       83           0.187500   0.312500   0.312500     0.00390625
       84           0.187500   0.312500   0.437500     0.00390625
       85           0.187500   0.312500   0.562500     0.00390625
       86           0.187500   0.312500   0.687500     0.00390625
       87           0.187500   0.312500   0.812500     0.00390625
       88           0.187500   0.312500   0.937500     0.00390625
       89           0.187500   0.437500   0.062500     0.00390625
       90           0.187500   0.437500   0.187500     0.00390625
       91           0.187500   0.437500   0.312500     0.00390625
       92           0.187500   0.437500   0.437500     0.00390625
       93           0.187500   0.437500   0.562500     0.00390625
       94           0.187500   0.437500   0.687500     0.00390625
       95           0.187500   0.437500   0.812500     0.00390625
       96           0.187500   0.437500   0.937500     0.00390625
       97           0.187500   0.562500   0.062500     0.00390625
       98           0.187500   0.562500   0.187500     0.00390625
       99           0.187500   0.562500   0.312500     0.00390625
      100           0.187500   0.562500   0.437500     0.00390625
      101           0.187500   0.562500   0.562500     0.00390625
      102           0.187500   0.562500   0.687500     0.00390625
      103           0.187500   0.562500   0.812500     0.00390625
      104           0.187500   0.562500   0.937500     0.00390625
      105           0.187500   0.687500   0.062500     0.00390625
      106           0.187500   0.687500   0.187500     0.00390625
      107           0.187500   0.687500   0.312500     0.00390625
      108           0.187500   0.687500   0.437500     0.00390625
      109           0.187500   0.687500   0.562500     0.00390625
      110           0.187500   0.687500   0.687500     0.00390625
      111           0.187500   0.687500   0.812500     0.00390625
      112           0.187500   0.687500   0.937500     0.00390625
      113           0.187500   0.812500   0.062500     0.00390625
      114           0.187500   0.812500   0.187500     0.00390625
      115           0.187500   0.812500   0.312500     0.00390625
      116           0.187500   0.812500   0.437500     0.00390625
      117           0.187500   0.812500   0.562500     0.00390625
      118           0.187500   0.812500   0.687500     0.00390625
      119           0.187500   0.812500   0.812500     0.00390625
      120           0.187500   0.812500   0.937500     0.00390625
      121           0.187500   0.937500   0.062500     0.00390625
      122           0.187500   0.937500   0.187500     0.00390625
      123           0.187500   0.937500   0.312500     0.00390625
      124           0.187500   0.937500   0.437500     0.00390625
      125           0.187500   0.937500   0.562500     0.00390625
      126           0.187500   0.937500   0.687500     0.00390625
      127           0.187500   0.937500   0.812500     0.00390625
      128           0.187500   0.937500   0.937500     0.00390625
      129           0.312500   0.062500   0.062500     0.00390625
      130           0.312500   0.062500   0.187500     0.00390625
      131           0.312500   0.062500   0.312500     0.00390625
      132           0.312500   0.062500   0.437500     0.00390625
      133           0.312500   0.062500   0.562500     0.00390625
      134           0.312500   0.062500   0.687500     0.00390625
      135           0.312500   0.062500   0.812500     0.00390625
      136           0.312500   0.062500   0.937500     0.00390625
      137           0.312500   0.187500   0.062500     0.00390625
      138           0.312500   0.187500   0.187500     0.00390625
      139           0.312500   0.187500   0.312500     0.00390625
      140           0.312500   0.187500   0.437500     0.00390625
      141           0.312500   0.187500   0.562500     0.00390625
      142           0.312500   0.187500   0.687500     0.00390625
      143           0.312500   0.187500   0.812500     0.00390625
      144           0.312500   0.187500   0.937500     0.00390625
      145           0.312500   0.312500   0.062500     0.00390625
      146           0.312500   0.312500   0.187500     0.00390625
      147           0.312500   0.312500   0.312500     0.00390625
      148           0.312500   0.312500   0.437500     0.00390625
      149           0.312500   0.312500   0.562500     0.00390625
      150           0.312500   0.312500   0.687500     0.00390625
      151           0.312500   0.312500   0.812500     0.00390625
      152           0.312500   0.312500   0.937500     0.00390625
      153           0.312500   0.437500   0.062500     0.00390625
      154           0.312500   0.437500   0.187500     0.00390625
      155           0.312500   0.437500   0.312500     0.00390625
      156           0.312500   0.437500   0.437500     0.00390625
      157           0.312500   0.437500   0.562500     0.00390625
      158           0.312500   0.437500   0.687500     0.00390625
      159           0.312500   0.437500   0.812500     0.00390625
      160           0.312500   0.437500   0.937500     0.00390625
      161           0.312500   0.562500   0.062500     0.00390625
      162           0.312500   0.562500   0.187500     0.00390625
      163           0.312500   0.562500   0.312500     0.00390625
      164           0.312500   0.562500   0.437500     0.00390625
      165           0.312500   0.562500   0.562500     0.00390625
      166           0.312500   0.562500   0.687500     0.00390625
      167           0.312500   0.562500   0.812500     0.00390625
      168           0.312500   0.562500   0.937500     0.00390625
      169           0.312500   0.687500   0.062500     0.00390625
      170           0.312500   0.687500   0.187500     0.00390625
      171           0.312500   0.687500   0.312500     0.00390625
      172           0.312500   0.687500   0.437500     0.00390625
      173           0.312500   0.687500   0.562500     0.00390625
      174           0.312500   0.687500   0.687500     0.00390625
      175           0.312500   0.687500   0.812500     0.00390625
      176           0.312500   0.687500   0.937500     0.00390625
      177           0.312500   0.812500   0.062500     0.00390625
      178           0.312500   0.812500   0.187500     0.00390625
      179           0.312500   0.812500   0.312500     0.00390625
      180           0.312500   0.812500   0.437500     0.00390625
      181           0.312500   0.812500   0.562500     0.00390625
      182           0.312500   0.812500   0.687500     0.00390625
      183           0.312500   0.812500   0.812500     0.00390625
      184           0.312500   0.812500   0.937500     0.00390625
      185           0.312500   0.937500   0.062500     0.00390625
      186           0.312500   0.937500   0.187500     0.00390625
      187           0.312500   0.937500   0.312500     0.00390625
      188           0.312500   0.937500   0.437500     0.00390625
      189           0.312500   0.937500   0.562500     0.00390625
      190           0.312500   0.937500   0.687500     0.00390625
      191           0.312500   0.937500   0.812500     0.00390625
      192           0.312500   0.937500   0.937500     0.00390625
      193           0.437500   0.062500   0.062500     0.00390625
      194           0.437500   0.062500   0.187500     0.00390625
      195           0.437500   0.062500   0.312500     0.00390625
      196           0.437500   0.062500   0.437500     0.00390625
      197           0.437500   0.062500   0.562500     0.00390625
      198           0.437500   0.062500   0.687500     0.00390625
      199           0.437500   0.062500   0.812500     0.00390625
      200           0.437500   0.062500   0.937500     0.00390625
      201           0.437500   0.187500   0.062500     0.00390625
      202           0.437500   0.187500   0.187500     0.00390625
      203           0.437500   0.187500   0.312500     0.00390625
      204           0.437500   0.187500   0.437500     0.00390625
      205           0.437500   0.187500   0.562500     0.00390625
      206           0.437500   0.187500   0.687500     0.00390625
      207           0.437500   0.187500   0.812500     0.00390625
      208           0.437500   0.187500   0.937500     0.00390625
      209           0.437500   0.312500   0.062500     0.00390625
      210           0.437500   0.312500   0.187500     0.00390625
      211           0.437500   0.312500   0.312500     0.00390625
      212           0.437500   0.312500   0.437500     0.00390625
      213           0.437500   0.312500   0.562500     0.00390625
      214           0.437500   0.312500   0.687500     0.00390625
      215           0.437500   0.312500   0.812500     0.00390625
      216           0.437500   0.312500   0.937500     0.00390625
      217           0.437500   0.437500   0.062500     0.00390625
      218           0.437500   0.437500   0.187500     0.00390625
      219           0.437500   0.437500   0.312500     0.00390625
      220           0.437500   0.437500   0.437500     0.00390625
      221           0.437500   0.437500   0.562500     0.00390625
      222           0.437500   0.437500   0.687500     0.00390625
      223           0.437500   0.437500   0.812500     0.00390625
      224           0.437500   0.437500   0.937500     0.00390625
      225           0.437500   0.562500   0.062500     0.00390625
      226           0.437500   0.562500   0.187500     0.00390625
      227           0.437500   0.562500   0.312500     0.00390625
      228           0.437500   0.562500   0.437500     0.00390625
      229           0.437500   0.562500   0.562500     0.00390625
      230           0.437500   0.562500   0.687500     0.00390625
      231           0.437500   0.562500   0.812500     0.00390625
      232           0.437500   0.562500   0.937500     0.00390625
      233           0.437500   0.687500   0.062500     0.00390625
      234           0.437500   0.687500   0.187500     0.00390625
      235           0.437500   0.687500   0.312500     0.00390625
      236           0.437500   0.687500   0.437500     0.00390625
      237           0.437500   0.687500   0.562500     0.00390625
      238           0.437500   0.687500   0.687500     0.00390625
      239           0.437500   0.687500   0.812500     0.00390625
      240           0.437500   0.687500   0.937500     0.00390625
      241           0.437500   0.812500   0.062500     0.00390625
      242           0.437500   0.812500   0.187500     0.00390625
      243           0.437500   0.812500   0.312500     0.00390625
      244           0.437500   0.812500   0.437500     0.00390625
      245           0.437500   0.812500   0.562500     0.00390625
      246           0.437500   0.812500   0.687500     0.00390625
      247           0.437500   0.812500   0.812500     0.00390625
      248           0.437500   0.812500   0.937500     0.00390625
      249           0.437500   0.937500   0.062500     0.00390625
      250           0.437500   0.937500   0.187500     0.00390625
      251           0.437500   0.937500   0.312500     0.00390625
      252           0.437500   0.937500   0.437500     0.00390625
      253           0.437500   0.937500   0.562500     0.00390625
      254           0.437500   0.937500   0.687500     0.00390625
      255           0.437500   0.937500   0.812500     0.00390625
      256           0.437500   0.937500   0.937500     0.00390625
--------------------------------------------------------------------------------


********************************************************************************
*  General input information                                                   *
********************************************************************************

  Species output for all configurations : 

--------------------------------------------------------------------------------
  Species    Type    Atomic    Atomic    Charge       Radii (Angs)     Library
                     Number     Mass       (e)     Cova   Ionic  VDW   Symbol
--------------------------------------------------------------------------------
    C        Core        6      12.01   0.000000   0.770  0.000  1.530          
--------------------------------------------------------------------------------


  Lattice summation method               =    Ewald          (3-D)
                                         =    Parry          (2-D)
                                         =    Saunders et al (1-D)
  Accuracy factor for lattice sums       =   12.000


  Time limit = Infinity

  Maximum range for interatomic potentials =    100000.000000 Angstroms

  Brenner et al 2002 potential to be used with explicit splines for P


********************************************************************************
*  Output for configuration   1                                                *
********************************************************************************


  Components of energy : 

--------------------------------------------------------------------------------
  Interatomic potentials     =           0.00000000 eV    
  Brenner potentials         =         -58.82215279 eV    
  Monopole - monopole (real) =           0.00000000 eV    
  Monopole - monopole (recip)=           0.00000000 eV    
  Monopole - monopole (total)=           0.00000000 eV    
--------------------------------------------------------------------------------
  Total lattice energy       =         -58.82215279 eV    
--------------------------------------------------------------------------------
  Total lattice energy       =           -5675.4386 kJ/(mole unit cells)
--------------------------------------------------------------------------------


  Elastic Constant Matrix: (Units=GPa)

-------------------------------------------------------------------------------
  Indices      1         2         3         4         5         6    
-------------------------------------------------------------------------------
       1    950.6892   79.5105   79.5105   -0.0000    0.0000    0.0000
       2     79.5105  950.6892   79.5105    0.0000   -0.0000    0.0000
       3     79.5105   79.5105  950.6892    0.0000    0.0000   -0.0000
       4     -0.0000    0.0000    0.0000  628.4376    0.0000    0.0000
       5      0.0000   -0.0000    0.0000    0.0000  628.4376    0.0000
       6      0.0000    0.0000   -0.0000    0.0000    0.0000  628.4376
-------------------------------------------------------------------------------

  Elastic Constant Tensor Eigenvalues: (Units=GPa)

-------------------------------------------------------------------------------
     1 =   628.4376     2 =   628.4376     3 =   628.4376
     4 =   871.1786     5 =   871.1786     6 =  1109.7102
-------------------------------------------------------------------------------


  Elastic Compliance Matrix: (Units=1/GPa)

-------------------------------------------------------------------------------
  Indices      1         2         3         4         5         6    
-------------------------------------------------------------------------------
       1    0.001066 -0.000082 -0.000082  0.000000 -0.000000 -0.000000
       2   -0.000082  0.001066 -0.000082 -0.000000  0.000000 -0.000000
       3   -0.000082 -0.000082  0.001066 -0.000000 -0.000000  0.000000
       4    0.000000 -0.000000 -0.000000  0.001591 -0.000000 -0.000000
       5   -0.000000  0.000000 -0.000000 -0.000000  0.001591 -0.000000
       6   -0.000000 -0.000000  0.000000 -0.000000 -0.000000  0.001591
-------------------------------------------------------------------------------

  Mechanical properties :

-------------------------------------------------------------------------------
  Convention :                    Reuss         Voigt         Hill
-------------------------------------------------------------------------------
  Bulk  Modulus (GPa)     =     369.90341     369.90341     369.90341
  Shear Modulus (GPa)     =     533.89002     551.29828     542.59415
-------------------------------------------------------------------------------
  Velocity S-wave (km/s)  =      12.61368      12.81767      12.71609
  Velocity P-wave (km/s)  =      17.95481      18.14641      18.05086
-------------------------------------------------------------------------------
  Compressibility (1/GPa) =    0.00270341
-------------------------------------------------------------------------------
  Stress axis :                     x             y             z
-------------------------------------------------------------------------------
  Youngs Moduli (GPa)     =     938.41595     938.41595     938.41595
-------------------------------------------------------------------------------
  Poissons Ratio (x)      =                     0.07718       0.07718
  Poissons Ratio (y)      =       0.07718                     0.07718
  Poissons Ratio (z)      =       0.07718       0.07718
-------------------------------------------------------------------------------


  Piezoelectric Strain Matrix: (Units=C/m**2)

-------------------------------------------------------------------------------
  Indices      1         2         3         4         5         6    
-------------------------------------------------------------------------------
       x    -0.00000  -0.00000  -0.00000  -0.00000  -0.00000  -0.00000
       y    -0.00000  -0.00000  -0.00000  -0.00000  -0.00000  -0.00000
       z    -0.00000  -0.00000  -0.00000  -0.00000  -0.00000  -0.00000
-------------------------------------------------------------------------------


  Piezoelectric Stress Matrix: (Units=10**-11 C/N)

-------------------------------------------------------------------------------
  Indices      1         2         3         4         5         6    
-------------------------------------------------------------------------------
       x     0.00000   0.00000   0.00000   0.00000   0.00000   0.00000
       y     0.00000   0.00000   0.00000   0.00000   0.00000   0.00000
       z     0.00000   0.00000   0.00000   0.00000   0.00000   0.00000
-------------------------------------------------------------------------------


  Static dielectric constant tensor : 

-------------------------------------------------------------------------------
              x         y         z
-------------------------------------------------------------------------------
       x     1.00000   0.00000   0.00000
       y     0.00000   1.00000   0.00000
       z     0.00000   0.00000   1.00000
--------------------------------------------------------------------------------

  Static refractive indices : 

-------------------------------------------------------------------------------
    1 =    1.00000      2 =    1.00000      3 =    1.00000
-------------------------------------------------------------------------------


  Phonon Calculation : 

  Number of k points for this configuration =      256

--------------------------------------------------------------------------------
  K point      1 =   0.062500  0.062500  0.062500  Weight =    0.004
--------------------------------------------------------------------------------

  Frequencies (cm-1) [NB: Negative implies an imaginary mode]:

  121.27  121.27  186.81 1010.48 1010.48 1010.48 1020.09 1020.09 1020.09
 1133.61 1133.61 1133.61 1165.24 1165.24 1165.24 1201.16 1201.16 1201.16
 1267.82 1267.82 1267.82 1468.70 1468.70 1473.29


--------------------------------------------------------------------------------
  K point      2 =   0.062500  0.062500  0.187500  Weight =    0.004
--------------------------------------------------------------------------------

  Frequencies (cm-1) [NB: Negative implies an imaginary mode]:

  237.37  251.23  336.11  919.02  925.53 1002.60 1002.60 1029.28 1029.28
 1063.62 1093.10 1093.10 1157.87 1157.87 1231.83 1231.83 1232.27 1240.10
 1279.49 1279.49 1331.94 1456.78 1457.55 1470.29


--------------------------------------------------------------------------------
  K point      3 =   0.062500  0.062500  0.312500  Weight =    0.004
--------------------------------------------------------------------------------

  Frequencies (cm-1) [NB: Negative implies an imaginary mode]:

  386.96  396.36  499.80  804.03  808.12  946.40  999.60  999.60 1036.12
 1036.12 1055.43 1055.43 1144.80 1144.80 1259.97 1259.97 1292.24 1292.24
 1299.04 1303.55 1382.52 1434.84 1435.12 1461.30


--------------------------------------------------------------------------------
  K point      4 =   0.062500  0.062500  0.437500  Weight =    0.004
--------------------------------------------------------------------------------

  Frequencies (cm-1) [NB: Negative implies an imaginary mode]:

  535.82  539.61  660.13  676.46  677.23  810.43 1004.68 1004.68 1024.48
 1024.48 1042.88 1042.88 1136.49 1136.49 1275.98 1275.98 1299.37 1299.37
 1355.84 1358.38 1401.27 1402.18 1419.58 1445.07


--------------------------------------------------------------------------------
  K point      5 =   0.062500  0.062500  0.562500  Weight =    0.004
--------------------------------------------------------------------------------

  Frequencies (cm-1) [NB: Negative implies an imaginary mode]:

  535.82  539.61  660.13  676.46  677.23  810.43 1004.68 1004.68 1024.48
 1024.48 1042.88 1042.88 1136.49 1136.49 1275.98 1275.98 1299.37 1299.37
 1355.84 1358.38 1401.27 1402.18 1419.58 1445.07


--------------------------------------------------------------------------------
  K point      6 =   0.062500  0.062500  0.687500  Weight =    0.004
--------------------------------------------------------------------------------

  Frequencies (cm-1) [NB: Negative implies an imaginary mode]:

  386.96  396.36  499.80  804.03  808.12  946.40  999.60  999.60 1036.12
 1036.12 1055.43 1055.43 1144.80 1144.80 1259.97 1259.97 1292.24 1292.24
 1299.04 1303.55 1382.52 1434.84 1435.12 1461.30


--------------------------------------------------------------------------------
  K point      7 =   0.062500  0.062500  0.812500  Weight =    0.004
--------------------------------------------------------------------------------

  Frequencies (cm-1) [NB: Negative implies an imaginary mode]:

  237.37  251.23  336.11  919.02  925.53 1002.60 1002.60 1029.28 1029.28
 1063.62 1093.10 1093.10 1157.87 1157.87 1231.83 1231.83 1232.27 1240.10
 1279.49 1279.49 1331.94 1456.78 1457.55 1470.29


--------------------------------------------------------------------------------
  K point      8 =   0.062500  0.062500  0.937500  Weight =    0.004
--------------------------------------------------------------------------------

  Frequencies (cm-1) [NB: Negative implies an imaginary mode]:

  121.27  121.27  186.81 1010.48 1010.48 1010.48 1020.09 1020.09 1020.09
 1133.61 1133.61 1133.61 1165.24 1165.24 1165.24 1201.16 1201.16 1201.16
 1267.82 1267.82 1267.82 1468.70 1468.70 1473.29


--------------------------------------------------------------------------------
  K point      9 =   0.062500  0.187500  0.062500  Weight =    0.004
--------------------------------------------------------------------------------

  Frequencies (cm-1) [NB: Negative implies an imaginary mode]:

  237.37  251.23  336.11  919.02  925.53 1002.60 1002.60 1029.28 1029.28
 1063.62 1093.10 1093.10 1157.87 1157.87 1231.83 1231.83 1232.27 1240.10
 1279.49 1279.49 1331.94 1456.78 1457.55 1470.29


--------------------------------------------------------------------------------
  K point     10 =   0.062500  0.187500  0.187500  Weight =    0.004
--------------------------------------------------------------------------------

  Frequencies (cm-1) [NB: Negative implies an imaginary mode]:

  286.24  330.60  448.14  917.67  917.67  937.11  937.11  971.64 1038.71
 1042.56 1042.56 1071.27 1181.04 1218.70 1227.48 1227.48 1262.77 1262.77
 1302.69 1327.16 1327.16 1442.73 1447.19 1468.92


--------------------------------------------------------------------------------
  K point     11 =   0.062500  0.187500  0.312500  Weight =    0.004
--------------------------------------------------------------------------------

  Frequencies (cm-1) [NB: Negative implies an imaginary mode]:

  398.07  449.94  581.66  802.43  826.53  919.29  944.85  951.49  953.53
 1021.95 1022.54 1054.89 1184.31 1217.72 1241.63 1290.33 1291.86 1312.92
 1317.23 1319.32 1374.11 1419.65 1427.13 1459.78


--------------------------------------------------------------------------------
  K point     12 =   0.062500  0.187500  0.437500  Weight =    0.004
--------------------------------------------------------------------------------

  Frequencies (cm-1) [NB: Negative implies an imaginary mode]:

  533.66  578.70  671.79  705.97  715.07  840.06  921.52  928.08  974.13
  997.56 1019.75 1034.65 1191.83 1204.84 1272.21 1296.01 1315.41 1323.62
 1345.39 1359.24 1387.67 1397.57 1412.64 1441.23


--------------------------------------------------------------------------------
  K point     13 =   0.062500  0.187500  0.562500  Weight =    0.004
--------------------------------------------------------------------------------

  Frequencies (cm-1) [NB: Negative implies an imaginary mode]:

  533.66  578.70  671.79  705.97  715.07  840.06  921.52  928.08  974.13
  997.56 1019.75 1034.65 1191.83 1204.84 1272.21 1296.01 1315.41 1323.62
 1345.39 1359.24 1387.67 1397.57 1412.64 1441.23


--------------------------------------------------------------------------------
  K point     14 =   0.062500  0.187500  0.687500  Weight =    0.004
--------------------------------------------------------------------------------

  Frequencies (cm-1) [NB: Negative implies an imaginary mode]:

  398.07  449.94  581.66  802.43  826.53  919.29  944.85  951.49  953.53
 1021.95 1022.54 1054.89 1184.31 1217.72 1241.63 1290.33 1291.86 1312.92
 1317.23 1319.32 1374.11 1419.65 1427.13 1459.78


--------------------------------------------------------------------------------
  K point     15 =   0.062500  0.187500  0.812500  Weight =    0.004
--------------------------------------------------------------------------------

  Frequencies (cm-1) [NB: Negative implies an imaginary mode]:

  286.24  330.60  448.14  917.67  917.67  937.11  937.11  971.64 1038.71
 1042.56 1042.56 1071.27 1181.04 1218.70 1227.48 1227.48 1262.77 1262.77
 1302.69 1327.16 1327.16 1442.73 1447.19 1468.92


--------------------------------------------------------------------------------
  K point     16 =   0.062500  0.187500  0.937500  Weight =    0.004
--------------------------------------------------------------------------------

  Frequencies (cm-1) [NB: Negative implies an imaginary mode]:

  237.37  251.23  336.11  919.02  925.53 1002.60 1002.60 1029.28 1029.28
 1063.62 1093.10 1093.10 1157.87 1157.87 1231.83 1231.83 1232.27 1240.10
 1279.49 1279.49 1331.94 1456.78 1457.55 1470.29


--------------------------------------------------------------------------------
  K point     17 =   0.062500  0.312500  0.062500  Weight =    0.004
--------------------------------------------------------------------------------

  Frequencies (cm-1) [NB: Negative implies an imaginary mode]:

  386.96  396.36  499.80  804.03  808.12  946.40  999.60  999.60 1036.12
 1036.12 1055.43 1055.43 1144.80 1144.80 1259.97 1259.97 1292.24 1292.24
 1299.04 1303.55 1382.52 1434.84 1435.12 1461.30


--------------------------------------------------------------------------------
  K point     18 =   0.062500  0.312500  0.187500  Weight =    0.004
--------------------------------------------------------------------------------

  Frequencies (cm-1) [NB: Negative implies an imaginary mode]:

  398.07  449.94  581.66  802.43  826.53  919.29  944.85  951.49  953.53
 1021.95 1022.54 1054.89 1184.31 1217.72 1241.63 1290.33 1291.86 1312.92
 1317.23 1319.32 1374.11 1419.65 1427.13 1459.78


--------------------------------------------------------------------------------
  K point     19 =   0.062500  0.312500  0.312500  Weight =    0.004
--------------------------------------------------------------------------------

  Frequencies (cm-1) [NB: Negative implies an imaginary mode]:

  459.55  541.75  684.22  804.00  804.00  861.46  861.46  890.03  962.17
  962.17  991.04 1035.73 1217.99 1256.69 1278.27 1278.27 1326.83 1326.83
 1337.23 1356.92 1356.92 1395.41 1411.55 1450.03


--------------------------------------------------------------------------------
  K point     20 =   0.062500  0.312500  0.437500  Weight =    0.004
--------------------------------------------------------------------------------

  Frequencies (cm-1) [NB: Negative implies an imaginary mode]:

  560.88  648.83  680.68  758.09  787.20  816.79  845.57  881.72  906.56
  952.68  979.41 1004.79 1239.14 1259.86 1295.04 1326.13 1329.80 1339.46
 1343.57 1360.05 1364.40 1388.81 1397.36 1429.33


--------------------------------------------------------------------------------
  K point     21 =   0.062500  0.312500  0.562500  Weight =    0.004
--------------------------------------------------------------------------------

  Frequencies (cm-1) [NB: Negative implies an imaginary mode]:

  560.88  648.83  680.68  758.09  787.20  816.79  845.57  881.72  906.56
  952.68  979.41 1004.79 1239.14 1259.86 1295.04 1326.13 1329.80 1339.46
 1343.57 1360.05 1364.40 1388.81 1397.36 1429.33


--------------------------------------------------------------------------------
  K point     22 =   0.062500  0.312500  0.687500  Weight =    0.004
--------------------------------------------------------------------------------

  Frequencies (cm-1) [NB: Negative implies an imaginary mode]:

  459.55  541.75  684.22  804.00  804.00  861.46  861.46  890.03  962.17
  962.17  991.04 1035.73 1217.99 1256.69 1278.27 1278.27 1326.83 1326.83
 1337.23 1356.92 1356.92 1395.41 1411.55 1450.03


--------------------------------------------------------------------------------
  K point     23 =   0.062500  0.312500  0.812500  Weight =    0.004
--------------------------------------------------------------------------------

  Frequencies (cm-1) [NB: Negative implies an imaginary mode]:

  398.07  449.94  581.66  802.43  826.53  919.29  944.85  951.49  953.53
 1021.95 1022.54 1054.89 1184.31 1217.72 1241.63 1290.33 1291.86 1312.92
 1317.23 1319.32 1374.11 1419.65 1427.13 1459.78


--------------------------------------------------------------------------------
  K point     24 =   0.062500  0.312500  0.937500  Weight =    0.004
--------------------------------------------------------------------------------

  Frequencies (cm-1) [NB: Negative implies an imaginary mode]:

  386.96  396.36  499.80  804.03  808.12  946.40  999.60  999.60 1036.12
 1036.12 1055.43 1055.43 1144.80 1144.80 1259.97 1259.97 1292.24 1292.24
 1299.04 1303.55 1382.52 1434.84 1435.12 1461.30


--------------------------------------------------------------------------------
  K point     25 =   0.062500  0.437500  0.062500  Weight =    0.004
--------------------------------------------------------------------------------

  Frequencies (cm-1) [NB: Negative implies an imaginary mode]:

  535.82  539.61  660.13  676.46  677.23  810.43 1004.68 1004.68 1024.48
 1024.48 1042.88 1042.88 1136.49 1136.49 1275.98 1275.98 1299.37 1299.37
 1355.84 1358.38 1401.27 1402.18 1419.58 1445.07


--------------------------------------------------------------------------------
  K point     26 =   0.062500  0.437500  0.187500  Weight =    0.004
--------------------------------------------------------------------------------

  Frequencies (cm-1) [NB: Negative implies an imaginary mode]:

  533.66  578.70  671.79  705.97  715.07  840.06  921.52  928.08  974.13
  997.56 1019.75 1034.65 1191.83 1204.84 1272.21 1296.01 1315.41 1323.62
 1345.39 1359.24 1387.67 1397.57 1412.64 1441.23


--------------------------------------------------------------------------------
  K point     27 =   0.062500  0.437500  0.312500  Weight =    0.004
--------------------------------------------------------------------------------

  Frequencies (cm-1) [NB: Negative implies an imaginary mode]:

  560.88  648.83  680.68  758.09  787.20  816.79  845.57  881.72  906.56
  952.68  979.41 1004.79 1239.14 1259.86 1295.04 1326.13 1329.80 1339.46
 1343.57 1360.05 1364.40 1388.81 1397.36 1429.33


--------------------------------------------------------------------------------
  K point     28 =   0.062500  0.437500  0.437500  Weight =    0.004
--------------------------------------------------------------------------------

  Frequencies (cm-1) [NB: Negative implies an imaginary mode]:

  624.25  713.84  713.84  734.56  771.00  823.72  823.72  859.63  892.17
  925.02  925.02  966.43 1272.39 1301.03 1301.03 1332.82 1335.12 1357.00
 1357.05 1357.05 1373.75 1373.75 1375.42 1406.72


--------------------------------------------------------------------------------
  K point     29 =   0.062500  0.437500  0.562500  Weight =    0.004
--------------------------------------------------------------------------------

  Frequencies (cm-1) [NB: Negative implies an imaginary mode]:

  624.25  713.84  713.84  734.56  771.00  823.72  823.72  859.63  892.17
  925.02  925.02  966.43 1272.39 1301.03 1301.03 1332.82 1335.12 1357.00
 1357.05 1357.05 1373.75 1373.75 1375.42 1406.72


--------------------------------------------------------------------------------
  K point     30 =   0.062500  0.437500  0.687500  Weight =    0.004
--------------------------------------------------------------------------------

  Frequencies (cm-1) [NB: Negative implies an imaginary mode]:

  560.88  648.83  680.68  758.09  787.20  816.79  845.57  881.72  906.56
  952.68  979.41 1004.79 1239.14 1259.86 1295.04 1326.13 1329.80 1339.46
 1343.57 1360.05 1364.40 1388.81 1397.36 1429.33


--------------------------------------------------------------------------------
  K point     31 =   0.062500  0.437500  0.812500  Weight =    0.004
--------------------------------------------------------------------------------

  Frequencies (cm-1) [NB: Negative implies an imaginary mode]:

  533.66  578.70  671.79  705.97  715.07  840.06  921.52  928.08  974.13
  997.56 1019.75 1034.65 1191.83 1204.84 1272.21 1296.01 1315.41 1323.62
 1345.39 1359.24 1387.67 1397.57 1412.64 1441.23


--------------------------------------------------------------------------------
  K point     32 =   0.062500  0.437500  0.937500  Weight =    0.004
--------------------------------------------------------------------------------

  Frequencies (cm-1) [NB: Negative implies an imaginary mode]:

  535.82  539.61  660.13  676.46  677.23  810.43 1004.68 1004.68 1024.48
 1024.48 1042.88 1042.88 1136.49 1136.49 1275.98 1275.98 1299.37 1299.37
 1355.84 1358.38 1401.27 1402.18 1419.58 1445.07


--------------------------------------------------------------------------------
  K point     33 =   0.062500  0.562500  0.062500  Weight =    0.004
--------------------------------------------------------------------------------

  Frequencies (cm-1) [NB: Negative implies an imaginary mode]:

  535.82  539.61  660.13  676.46  677.23  810.43 1004.68 1004.68 1024.48
 1024.48 1042.88 1042.88 1136.49 1136.49 1275.98 1275.98 1299.37 1299.37
 1355.84 1358.38 1401.27 1402.18 1419.58 1445.07


--------------------------------------------------------------------------------
  K point     34 =   0.062500  0.562500  0.187500  Weight =    0.004
--------------------------------------------------------------------------------

  Frequencies (cm-1) [NB: Negative implies an imaginary mode]:

  533.66  578.70  671.79  705.97  715.07  840.06  921.52  928.08  974.13
  997.56 1019.75 1034.65 1191.83 1204.84 1272.21 1296.01 1315.41 1323.62
 1345.39 1359.24 1387.67 1397.57 1412.64 1441.23


--------------------------------------------------------------------------------
  K point     35 =   0.062500  0.562500  0.312500  Weight =    0.004
--------------------------------------------------------------------------------

  Frequencies (cm-1) [NB: Negative implies an imaginary mode]:

  560.88  648.83  680.68  758.09  787.20  816.79  845.57  881.72  906.56
  952.68  979.41 1004.79 1239.14 1259.86 1295.04 1326.13 1329.80 1339.46
 1343.57 1360.05 1364.40 1388.81 1397.36 1429.33


--------------------------------------------------------------------------------
  K point     36 =   0.062500  0.562500  0.437500  Weight =    0.004
--------------------------------------------------------------------------------

  Frequencies (cm-1) [NB: Negative implies an imaginary mode]:

  624.25  713.84  713.84  734.56  771.00  823.72  823.72  859.63  892.17
  925.02  925.02  966.43 1272.39 1301.03 1301.03 1332.82 1335.12 1357.00
 1357.05 1357.05 1373.75 1373.75 1375.42 1406.72


--------------------------------------------------------------------------------
  K point     37 =   0.062500  0.562500  0.562500  Weight =    0.004
--------------------------------------------------------------------------------

  Frequencies (cm-1) [NB: Negative implies an imaginary mode]:

  624.25  713.84  713.84  734.56  771.00  823.72  823.72  859.63  892.17
  925.02  925.02  966.43 1272.39 1301.03 1301.03 1332.82 1335.12 1357.00
 1357.05 1357.05 1373.75 1373.75 1375.42 1406.72


--------------------------------------------------------------------------------
  K point     38 =   0.062500  0.562500  0.687500  Weight =    0.004
--------------------------------------------------------------------------------

  Frequencies (cm-1) [NB: Negative implies an imaginary mode]:

  560.88  648.83  680.68  758.09  787.20  816.79  845.57  881.72  906.56
  952.68  979.41 1004.79 1239.14 1259.86 1295.04 1326.13 1329.80 1339.46
 1343.57 1360.05 1364.40 1388.81 1397.36 1429.33


--------------------------------------------------------------------------------
  K point     39 =   0.062500  0.562500  0.812500  Weight =    0.004
--------------------------------------------------------------------------------

  Frequencies (cm-1) [NB: Negative implies an imaginary mode]:

  533.66  578.70  671.79  705.97  715.07  840.06  921.52  928.08  974.13
  997.56 1019.75 1034.65 1191.83 1204.84 1272.21 1296.01 1315.41 1323.62
 1345.39 1359.24 1387.67 1397.57 1412.64 1441.23


--------------------------------------------------------------------------------
  K point     40 =   0.062500  0.562500  0.937500  Weight =    0.004
--------------------------------------------------------------------------------

  Frequencies (cm-1) [NB: Negative implies an imaginary mode]:

  535.82  539.61  660.13  676.46  677.23  810.43 1004.68 1004.68 1024.48
 1024.48 1042.88 1042.88 1136.49 1136.49 1275.98 1275.98 1299.37 1299.37
 1355.84 1358.38 1401.27 1402.18 1419.58 1445.07


--------------------------------------------------------------------------------
  K point     41 =   0.062500  0.687500  0.062500  Weight =    0.004
--------------------------------------------------------------------------------

  Frequencies (cm-1) [NB: Negative implies an imaginary mode]:

  386.96  396.36  499.80  804.03  808.12  946.40  999.60  999.60 1036.12
 1036.12 1055.43 1055.43 1144.80 1144.80 1259.97 1259.97 1292.24 1292.24
 1299.04 1303.55 1382.52 1434.84 1435.12 1461.30


--------------------------------------------------------------------------------
  K point     42 =   0.062500  0.687500  0.187500  Weight =    0.004
--------------------------------------------------------------------------------

  Frequencies (cm-1) [NB: Negative implies an imaginary mode]:

  398.07  449.94  581.66  802.43  826.53  919.29  944.85  951.49  953.53
 1021.95 1022.54 1054.89 1184.31 1217.72 1241.63 1290.33 1291.86 1312.92
 1317.23 1319.32 1374.11 1419.65 1427.13 1459.78


--------------------------------------------------------------------------------
  K point     43 =   0.062500  0.687500  0.312500  Weight =    0.004
--------------------------------------------------------------------------------

  Frequencies (cm-1) [NB: Negative implies an imaginary mode]:

  459.55  541.75  684.22  804.00  804.00  861.46  861.46  890.03  962.17
  962.17  991.04 1035.73 1217.99 1256.69 1278.27 1278.27 1326.83 1326.83
 1337.23 1356.92 1356.92 1395.41 1411.55 1450.03


--------------------------------------------------------------------------------
  K point     44 =   0.062500  0.687500  0.437500  Weight =    0.004
--------------------------------------------------------------------------------

  Frequencies (cm-1) [NB: Negative implies an imaginary mode]:

  560.88  648.83  680.68  758.09  787.20  816.79  845.57  881.72  906.56
  952.68  979.41 1004.79 1239.14 1259.86 1295.04 1326.13 1329.80 1339.46
 1343.57 1360.05 1364.40 1388.81 1397.36 1429.33


--------------------------------------------------------------------------------
  K point     45 =   0.062500  0.687500  0.562500  Weight =    0.004
--------------------------------------------------------------------------------

  Frequencies (cm-1) [NB: Negative implies an imaginary mode]:

  560.88  648.83  680.68  758.09  787.20  816.79  845.57  881.72  906.56
  952.68  979.41 1004.79 1239.14 1259.86 1295.04 1326.13 1329.80 1339.46
 1343.57 1360.05 1364.40 1388.81 1397.36 1429.33


--------------------------------------------------------------------------------
  K point     46 =   0.062500  0.687500  0.687500  Weight =    0.004
--------------------------------------------------------------------------------

  Frequencies (cm-1) [NB: Negative implies an imaginary mode]:

  459.55  541.75  684.22  804.00  804.00  861.46  861.46  890.03  962.17
  962.17  991.04 1035.73 1217.99 1256.69 1278.27 1278.27 1326.83 1326.83
 1337.23 1356.92 1356.92 1395.41 1411.55 1450.03


--------------------------------------------------------------------------------
  K point     47 =   0.062500  0.687500  0.812500  Weight =    0.004
--------------------------------------------------------------------------------

  Frequencies (cm-1) [NB: Negative implies an imaginary mode]:

  398.07  449.94  581.66  802.43  826.53  919.29  944.85  951.49  953.53
 1021.95 1022.54 1054.89 1184.31 1217.72 1241.63 1290.33 1291.86 1312.92
 1317.23 1319.32 1374.11 1419.65 1427.13 1459.78


--------------------------------------------------------------------------------
  K point     48 =   0.062500  0.687500  0.937500  Weight =    0.004
--------------------------------------------------------------------------------

  Frequencies (cm-1) [NB: Negative implies an imaginary mode]:

  386.96  396.36  499.80  804.03  808.12  946.40  999.60  999.60 1036.12
 1036.12 1055.43 1055.43 1144.80 1144.80 1259.97 1259.97 1292.24 1292.24
 1299.04 1303.55 1382.52 1434.84 1435.12 1461.30


--------------------------------------------------------------------------------
  K point     49 =   0.062500  0.812500  0.062500  Weight =    0.004
--------------------------------------------------------------------------------

  Frequencies (cm-1) [NB: Negative implies an imaginary mode]:

  237.37  251.23  336.11  919.02  925.53 1002.60 1002.60 1029.28 1029.28
 1063.62 1093.10 1093.10 1157.87 1157.87 1231.83 1231.83 1232.27 1240.10
 1279.49 1279.49 1331.94 1456.78 1457.55 1470.29


--------------------------------------------------------------------------------
  K point     50 =   0.062500  0.812500  0.187500  Weight =    0.004
--------------------------------------------------------------------------------

  Frequencies (cm-1) [NB: Negative implies an imaginary mode]:

  286.24  330.60  448.14  917.67  917.67  937.11  937.11  971.64 1038.71
 1042.56 1042.56 1071.27 1181.04 1218.70 1227.48 1227.48 1262.77 1262.77
 1302.69 1327.16 1327.16 1442.73 1447.19 1468.92


--------------------------------------------------------------------------------
  K point     51 =   0.062500  0.812500  0.312500  Weight =    0.004
--------------------------------------------------------------------------------

  Frequencies (cm-1) [NB: Negative implies an imaginary mode]:

  398.07  449.94  581.66  802.43  826.53  919.29  944.85  951.49  953.53
 1021.95 1022.54 1054.89 1184.31 1217.72 1241.63 1290.33 1291.86 1312.92
 1317.23 1319.32 1374.11 1419.65 1427.13 1459.78


--------------------------------------------------------------------------------
  K point     52 =   0.062500  0.812500  0.437500  Weight =    0.004
--------------------------------------------------------------------------------

  Frequencies (cm-1) [NB: Negative implies an imaginary mode]:

  533.66  578.70  671.79  705.97  715.07  840.06  921.52  928.08  974.13
  997.56 1019.75 1034.65 1191.83 1204.84 1272.21 1296.01 1315.41 1323.62
 1345.39 1359.24 1387.67 1397.57 1412.64 1441.23


--------------------------------------------------------------------------------
  K point     53 =   0.062500  0.812500  0.562500  Weight =    0.004
--------------------------------------------------------------------------------

  Frequencies (cm-1) [NB: Negative implies an imaginary mode]:

  533.66  578.70  671.79  705.97  715.07  840.06  921.52  928.08  974.13
  997.56 1019.75 1034.65 1191.83 1204.84 1272.21 1296.01 1315.41 1323.62
 1345.39 1359.24 1387.67 1397.57 1412.64 1441.23


--------------------------------------------------------------------------------
  K point     54 =   0.062500  0.812500  0.687500  Weight =    0.004
--------------------------------------------------------------------------------

  Frequencies (cm-1) [NB: Negative implies an imaginary mode]:

  398.07  449.94  581.66  802.43  826.53  919.29  944.85  951.49  953.53
 1021.95 1022.54 1054.89 1184.31 1217.72 1241.63 1290.33 1291.86 1312.92
 1317.23 1319.32 1374.11 1419.65 1427.13 1459.78


--------------------------------------------------------------------------------
  K point     55 =   0.062500  0.812500  0.812500  Weight =    0.004
--------------------------------------------------------------------------------

  Frequencies (cm-1) [NB: Negative implies an imaginary mode]:

  286.24  330.60  448.14  917.67  917.67  937.11  937.11  971.64 1038.71
 1042.56 1042.56 1071.27 1181.04 1218.70 1227.48 1227.48 1262.77 1262.77
 1302.69 1327.16 1327.16 1442.73 1447.19 1468.92


--------------------------------------------------------------------------------
  K point     56 =   0.062500  0.812500  0.937500  Weight =    0.004
--------------------------------------------------------------------------------

  Frequencies (cm-1) [NB: Negative implies an imaginary mode]:

  237.37  251.23  336.11  919.02  925.53 1002.60 1002.60 1029.28 1029.28
 1063.62 1093.10 1093.10 1157.87 1157.87 1231.83 1231.83 1232.27 1240.10
 1279.49 1279.49 1331.94 1456.78 1457.55 1470.29


--------------------------------------------------------------------------------
  K point     57 =   0.062500  0.937500  0.062500  Weight =    0.004
--------------------------------------------------------------------------------

  Frequencies (cm-1) [NB: Negative implies an imaginary mode]:

  121.27  121.27  186.81 1010.48 1010.48 1010.48 1020.09 1020.09 1020.09
 1133.61 1133.61 1133.61 1165.24 1165.24 1165.24 1201.16 1201.16 1201.16
 1267.82 1267.82 1267.82 1468.70 1468.70 1473.29


--------------------------------------------------------------------------------
  K point     58 =   0.062500  0.937500  0.187500  Weight =    0.004
--------------------------------------------------------------------------------

  Frequencies (cm-1) [NB: Negative implies an imaginary mode]:

  237.37  251.23  336.11  919.02  925.53 1002.60 1002.60 1029.28 1029.28
 1063.62 1093.10 1093.10 1157.87 1157.87 1231.83 1231.83 1232.27 1240.10
 1279.49 1279.49 1331.94 1456.78 1457.55 1470.29


--------------------------------------------------------------------------------
  K point     59 =   0.062500  0.937500  0.312500  Weight =    0.004
--------------------------------------------------------------------------------

  Frequencies (cm-1) [NB: Negative implies an imaginary mode]:

  386.96  396.36  499.80  804.03  808.12  946.40  999.60  999.60 1036.12
 1036.12 1055.43 1055.43 1144.80 1144.80 1259.97 1259.97 1292.24 1292.24
 1299.04 1303.55 1382.52 1434.84 1435.12 1461.30


--------------------------------------------------------------------------------
  K point     60 =   0.062500  0.937500  0.437500  Weight =    0.004
--------------------------------------------------------------------------------

  Frequencies (cm-1) [NB: Negative implies an imaginary mode]:

  535.82  539.61  660.13  676.46  677.23  810.43 1004.68 1004.68 1024.48
 1024.48 1042.88 1042.88 1136.49 1136.49 1275.98 1275.98 1299.37 1299.37
 1355.84 1358.38 1401.27 1402.18 1419.58 1445.07


--------------------------------------------------------------------------------
  K point     61 =   0.062500  0.937500  0.562500  Weight =    0.004
--------------------------------------------------------------------------------

  Frequencies (cm-1) [NB: Negative implies an imaginary mode]:

  535.82  539.61  660.13  676.46  677.23  810.43 1004.68 1004.68 1024.48
 1024.48 1042.88 1042.88 1136.49 1136.49 1275.98 1275.98 1299.37 1299.37
 1355.84 1358.38 1401.27 1402.18 1419.58 1445.07


--------------------------------------------------------------------------------
  K point     62 =   0.062500  0.937500  0.687500  Weight =    0.004
--------------------------------------------------------------------------------

  Frequencies (cm-1) [NB: Negative implies an imaginary mode]:

  386.96  396.36  499.80  804.03  808.12  946.40  999.60  999.60 1036.12
 1036.12 1055.43 1055.43 1144.80 1144.80 1259.97 1259.97 1292.24 1292.24
 1299.04 1303.55 1382.52 1434.84 1435.12 1461.30


--------------------------------------------------------------------------------
  K point     63 =   0.062500  0.937500  0.812500  Weight =    0.004
--------------------------------------------------------------------------------

  Frequencies (cm-1) [NB: Negative implies an imaginary mode]:

  237.37  251.23  336.11  919.02  925.53 1002.60 1002.60 1029.28 1029.28
 1063.62 1093.10 1093.10 1157.87 1157.87 1231.83 1231.83 1232.27 1240.10
 1279.49 1279.49 1331.94 1456.78 1457.55 1470.29


--------------------------------------------------------------------------------
  K point     64 =   0.062500  0.937500  0.937500  Weight =    0.004
--------------------------------------------------------------------------------

  Frequencies (cm-1) [NB: Negative implies an imaginary mode]:

  121.27  121.27  186.81 1010.48 1010.48 1010.48 1020.09 1020.09 1020.09
 1133.61 1133.61 1133.61 1165.24 1165.24 1165.24 1201.16 1201.16 1201.16
 1267.82 1267.82 1267.82 1468.70 1468.70 1473.29


--------------------------------------------------------------------------------
  K point     65 =   0.187500  0.062500  0.062500  Weight =    0.004
--------------------------------------------------------------------------------

  Frequencies (cm-1) [NB: Negative implies an imaginary mode]:

  237.37  251.23  336.11  919.02  925.53 1002.60 1002.60 1029.28 1029.28
 1063.62 1093.10 1093.10 1157.87 1157.87 1231.83 1231.83 1232.27 1240.10
 1279.49 1279.49 1331.94 1456.78 1457.55 1470.29


--------------------------------------------------------------------------------
  K point     66 =   0.187500  0.062500  0.187500  Weight =    0.004
--------------------------------------------------------------------------------

  Frequencies (cm-1) [NB: Negative implies an imaginary mode]:

  286.24  330.60  448.14  917.67  917.67  937.11  937.11  971.64 1038.71
 1042.56 1042.56 1071.27 1181.04 1218.70 1227.48 1227.48 1262.77 1262.77
 1302.69 1327.16 1327.16 1442.73 1447.19 1468.92


--------------------------------------------------------------------------------
  K point     67 =   0.187500  0.062500  0.312500  Weight =    0.004
--------------------------------------------------------------------------------

  Frequencies (cm-1) [NB: Negative implies an imaginary mode]:

  398.07  449.94  581.66  802.43  826.53  919.29  944.85  951.49  953.53
 1021.95 1022.54 1054.89 1184.31 1217.72 1241.63 1290.33 1291.86 1312.92
 1317.23 1319.32 1374.11 1419.65 1427.13 1459.78


--------------------------------------------------------------------------------
  K point     68 =   0.187500  0.062500  0.437500  Weight =    0.004
--------------------------------------------------------------------------------

  Frequencies (cm-1) [NB: Negative implies an imaginary mode]:

  533.66  578.70  671.79  705.97  715.07  840.06  921.52  928.08  974.13
  997.56 1019.75 1034.65 1191.83 1204.84 1272.21 1296.01 1315.41 1323.62
 1345.39 1359.24 1387.67 1397.57 1412.64 1441.23


--------------------------------------------------------------------------------
  K point     69 =   0.187500  0.062500  0.562500  Weight =    0.004
--------------------------------------------------------------------------------

  Frequencies (cm-1) [NB: Negative implies an imaginary mode]:

  533.66  578.70  671.79  705.97  715.07  840.06  921.52  928.08  974.13
  997.56 1019.75 1034.65 1191.83 1204.84 1272.21 1296.01 1315.41 1323.62
 1345.39 1359.24 1387.67 1397.57 1412.64 1441.23


--------------------------------------------------------------------------------
  K point     70 =   0.187500  0.062500  0.687500  Weight =    0.004
--------------------------------------------------------------------------------

  Frequencies (cm-1) [NB: Negative implies an imaginary mode]:

  398.07  449.94  581.66  802.43  826.53  919.29  944.85  951.49  953.53
 1021.95 1022.54 1054.89 1184.31 1217.72 1241.63 1290.33 1291.86 1312.92
 1317.23 1319.32 1374.11 1419.65 1427.13 1459.78


--------------------------------------------------------------------------------
  K point     71 =   0.187500  0.062500  0.812500  Weight =    0.004
--------------------------------------------------------------------------------

  Frequencies (cm-1) [NB: Negative implies an imaginary mode]:

  286.24  330.60  448.14  917.67  917.67  937.11  937.11  971.64 1038.71
 1042.56 1042.56 1071.27 1181.04 1218.70 1227.48 1227.48 1262.77 1262.77
 1302.69 1327.16 1327.16 1442.73 1447.19 1468.92


--------------------------------------------------------------------------------
  K point     72 =   0.187500  0.062500  0.937500  Weight =    0.004
--------------------------------------------------------------------------------

  Frequencies (cm-1) [NB: Negative implies an imaginary mode]:

  237.37  251.23  336.11  919.02  925.53 1002.60 1002.60 1029.28 1029.28
 1063.62 1093.10 1093.10 1157.87 1157.87 1231.83 1231.83 1232.27 1240.10
 1279.49 1279.49 1331.94 1456.78 1457.55 1470.29


--------------------------------------------------------------------------------
  K point     73 =   0.187500  0.187500  0.062500  Weight =    0.004
--------------------------------------------------------------------------------

  Frequencies (cm-1) [NB: Negative implies an imaginary mode]:

  286.24  330.60  448.14  917.67  917.67  937.11  937.11  971.64 1038.71
 1042.56 1042.56 1071.27 1181.04 1218.70 1227.48 1227.48 1262.77 1262.77
 1302.69 1327.16 1327.16 1442.73 1447.19 1468.92


--------------------------------------------------------------------------------
  K point     74 =   0.187500  0.187500  0.187500  Weight =    0.004
--------------------------------------------------------------------------------

  Frequencies (cm-1) [NB: Negative implies an imaginary mode]:

  354.13  354.13  540.97  901.14  901.14  901.14  943.85  943.85  943.85
 1036.51 1036.51 1036.51 1230.25 1230.25 1230.25 1270.94 1270.94 1270.94
 1328.08 1328.08 1328.08 1432.25 1432.25 1468.76


--------------------------------------------------------------------------------
  K point     75 =   0.187500  0.187500  0.312500  Weight =    0.004
--------------------------------------------------------------------------------

  Frequencies (cm-1) [NB: Negative implies an imaginary mode]:

  438.97  457.96  656.91  802.51  823.96  888.16  888.16  938.85  938.85
  968.02 1034.41 1034.41 1229.05 1229.05 1287.05 1287.05 1287.19 1317.72
 1327.60 1327.60 1368.52 1410.27 1411.28 1460.36


--------------------------------------------------------------------------------
  K point     76 =   0.187500  0.187500  0.437500  Weight =    0.004
--------------------------------------------------------------------------------

  Frequencies (cm-1) [NB: Negative implies an imaginary mode]:

  559.91  574.24  691.34  692.83  772.55  878.17  881.78  881.78  930.66
  930.66 1035.97 1035.97 1226.83 1226.83 1301.49 1301.49 1324.39 1324.39
 1338.16 1353.53 1379.84 1383.84 1409.41 1440.82


--------------------------------------------------------------------------------
  K point     77 =   0.187500  0.187500  0.562500  Weight =    0.004
--------------------------------------------------------------------------------

  Frequencies (cm-1) [NB: Negative implies an imaginary mode]:

  559.91  574.24  691.34  692.83  772.55  878.17  881.78  881.78  930.66
  930.66 1035.97 1035.97 1226.83 1226.83 1301.49 1301.49 1324.39 1324.39
 1338.16 1353.53 1379.84 1383.84 1409.41 1440.82


--------------------------------------------------------------------------------
  K point     78 =   0.187500  0.187500  0.687500  Weight =    0.004
--------------------------------------------------------------------------------

  Frequencies (cm-1) [NB: Negative implies an imaginary mode]:

  438.97  457.96  656.91  802.51  823.96  888.16  888.16  938.85  938.85
  968.02 1034.41 1034.41 1229.05 1229.05 1287.05 1287.05 1287.19 1317.72
 1327.60 1327.60 1368.52 1410.27 1411.28 1460.36


--------------------------------------------------------------------------------
  K point     79 =   0.187500  0.187500  0.812500  Weight =    0.004
--------------------------------------------------------------------------------

  Frequencies (cm-1) [NB: Negative implies an imaginary mode]:

  354.13  354.13  540.97  901.14  901.14  901.14  943.85  943.85  943.85
 1036.51 1036.51 1036.51 1230.25 1230.25 1230.25 1270.94 1270.94 1270.94
 1328.08 1328.08 1328.08 1432.25 1432.25 1468.76


--------------------------------------------------------------------------------
  K point     80 =   0.187500  0.187500  0.937500  Weight =    0.004
--------------------------------------------------------------------------------

  Frequencies (cm-1) [NB: Negative implies an imaginary mode]:

  286.24  330.60  448.14  917.67  917.67  937.11  937.11  971.64 1038.71
 1042.56 1042.56 1071.27 1181.04 1218.70 1227.48 1227.48 1262.77 1262.77
 1302.69 1327.16 1327.16 1442.73 1447.19 1468.92


--------------------------------------------------------------------------------
  K point     81 =   0.187500  0.312500  0.062500  Weight =    0.004
--------------------------------------------------------------------------------

  Frequencies (cm-1) [NB: Negative implies an imaginary mode]:

  398.07  449.94  581.66  802.43  826.53  919.29  944.85  951.49  953.53
 1021.95 1022.54 1054.89 1184.31 1217.72 1241.63 1290.33 1291.86 1312.92
 1317.23 1319.32 1374.11 1419.65 1427.13 1459.78


--------------------------------------------------------------------------------
  K point     82 =   0.187500  0.312500  0.187500  Weight =    0.004
--------------------------------------------------------------------------------

  Frequencies (cm-1) [NB: Negative implies an imaginary mode]:

  438.97  457.96  656.91  802.51  823.96  888.16  888.16  938.85  938.85
  968.02 1034.41 1034.41 1229.05 1229.05 1287.05 1287.05 1287.19 1317.72
 1327.60 1327.60 1368.52 1410.27 1411.28 1460.36


--------------------------------------------------------------------------------
  K point     83 =   0.187500  0.312500  0.312500  Weight =    0.004
--------------------------------------------------------------------------------

  Frequencies (cm-1) [NB: Negative implies an imaginary mode]:

  493.87  530.27  752.35  798.62  798.62  834.58  834.58  850.76  912.79
  991.62  991.62 1039.85 1242.14 1278.15 1278.15 1295.89 1325.07 1325.07
 1336.22 1357.51 1357.51 1386.86 1393.62 1452.72


--------------------------------------------------------------------------------
  K point     84 =   0.187500  0.312500  0.437500  Weight =    0.004
--------------------------------------------------------------------------------

  Frequencies (cm-1) [NB: Negative implies an imaginary mode]:

  582.50  626.30  690.82  729.20  802.32  820.04  846.02  855.80  883.20
  927.74 1014.83 1032.50 1253.87 1266.29 1314.88 1322.12 1328.76 1339.85
 1343.89 1347.07 1358.04 1370.55 1400.37 1433.09


--------------------------------------------------------------------------------
  K point     85 =   0.187500  0.312500  0.562500  Weight =    0.004
--------------------------------------------------------------------------------

  Frequencies (cm-1) [NB: Negative implies an imaginary mode]:

  582.50  626.30  690.82  729.20  802.32  820.04  846.02  855.80  883.20
  927.74 1014.83 1032.50 1253.87 1266.29 1314.88 1322.12 1328.76 1339.85
 1343.89 1347.07 1358.04 1370.55 1400.37 1433.09


--------------------------------------------------------------------------------
  K point     86 =   0.187500  0.312500  0.687500  Weight =    0.004
--------------------------------------------------------------------------------

  Frequencies (cm-1) [NB: Negative implies an imaginary mode]:

  493.87  530.27  752.35  798.62  798.62  834.58  834.58  850.76  912.79
  991.62  991.62 1039.85 1242.14 1278.15 1278.15 1295.89 1325.07 1325.07
 1336.22 1357.51 1357.51 1386.86 1393.62 1452.72


--------------------------------------------------------------------------------
  K point     87 =   0.187500  0.312500  0.812500  Weight =    0.004
--------------------------------------------------------------------------------

  Frequencies (cm-1) [NB: Negative implies an imaginary mode]:

  438.97  457.96  656.91  802.51  823.96  888.16  888.16  938.85  938.85
  968.02 1034.41 1034.41 1229.05 1229.05 1287.05 1287.05 1287.19 1317.72
 1327.60 1327.60 1368.52 1410.27 1411.28 1460.36


--------------------------------------------------------------------------------
  K point     88 =   0.187500  0.312500  0.937500  Weight =    0.004
--------------------------------------------------------------------------------

  Frequencies (cm-1) [NB: Negative implies an imaginary mode]:

  398.07  449.94  581.66  802.43  826.53  919.29  944.85  951.49  953.53
 1021.95 1022.54 1054.89 1184.31 1217.72 1241.63 1290.33 1291.86 1312.92
 1317.23 1319.32 1374.11 1419.65 1427.13 1459.78


--------------------------------------------------------------------------------
  K point     89 =   0.187500  0.437500  0.062500  Weight =    0.004
--------------------------------------------------------------------------------

  Frequencies (cm-1) [NB: Negative implies an imaginary mode]:

  533.66  578.70  671.79  705.97  715.07  840.06  921.52  928.08  974.13
  997.56 1019.75 1034.65 1191.83 1204.84 1272.21 1296.01 1315.41 1323.62
 1345.39 1359.24 1387.67 1397.57 1412.64 1441.23


--------------------------------------------------------------------------------
  K point     90 =   0.187500  0.437500  0.187500  Weight =    0.004
--------------------------------------------------------------------------------

  Frequencies (cm-1) [NB: Negative implies an imaginary mode]:

  559.91  574.24  691.34  692.83  772.55  878.17  881.78  881.78  930.66
  930.66 1035.97 1035.97 1226.83 1226.83 1301.49 1301.49 1324.39 1324.39
 1338.16 1353.53 1379.84 1383.84 1409.41 1440.82


--------------------------------------------------------------------------------
  K point     91 =   0.187500  0.437500  0.312500  Weight =    0.004
--------------------------------------------------------------------------------

  Frequencies (cm-1) [NB: Negative implies an imaginary mode]:

  582.50  626.30  690.82  729.20  802.32  820.04  846.02  855.80  883.20
  927.74 1014.83 1032.50 1253.87 1266.29 1314.88 1322.12 1328.76 1339.85
 1343.89 1347.07 1358.04 1370.55 1400.37 1433.09


--------------------------------------------------------------------------------
  K point     92 =   0.187500  0.437500  0.437500  Weight =    0.004
--------------------------------------------------------------------------------

  Frequencies (cm-1) [NB: Negative implies an imaginary mode]:

  635.24  698.75  713.55  713.55  759.34  777.56  777.56  830.87  916.38
  974.34  974.34 1010.81 1278.16 1301.02 1301.02 1329.10 1331.11 1339.47
 1339.47 1354.93 1361.65 1383.93 1383.93 1414.38


--------------------------------------------------------------------------------
  K point     93 =   0.187500  0.437500  0.562500  Weight =    0.004
--------------------------------------------------------------------------------

  Frequencies (cm-1) [NB: Negative implies an imaginary mode]:

  635.24  698.75  713.55  713.55  759.34  777.56  777.56  830.87  916.38
  974.34  974.34 1010.81 1278.16 1301.02 1301.02 1329.10 1331.11 1339.47
 1339.47 1354.93 1361.65 1383.93 1383.93 1414.38


--------------------------------------------------------------------------------
  K point     94 =   0.187500  0.437500  0.687500  Weight =    0.004
--------------------------------------------------------------------------------

  Frequencies (cm-1) [NB: Negative implies an imaginary mode]:

  582.50  626.30  690.82  729.20  802.32  820.04  846.02  855.80  883.20
  927.74 1014.83 1032.50 1253.87 1266.29 1314.88 1322.12 1328.76 1339.85
 1343.89 1347.07 1358.04 1370.55 1400.37 1433.09


--------------------------------------------------------------------------------
  K point     95 =   0.187500  0.437500  0.812500  Weight =    0.004
--------------------------------------------------------------------------------

  Frequencies (cm-1) [NB: Negative implies an imaginary mode]:

  559.91  574.24  691.34  692.83  772.55  878.17  881.78  881.78  930.66
  930.66 1035.97 1035.97 1226.83 1226.83 1301.49 1301.49 1324.39 1324.39
 1338.16 1353.53 1379.84 1383.84 1409.41 1440.82


--------------------------------------------------------------------------------
  K point     96 =   0.187500  0.437500  0.937500  Weight =    0.004
--------------------------------------------------------------------------------

  Frequencies (cm-1) [NB: Negative implies an imaginary mode]:

  533.66  578.70  671.79  705.97  715.07  840.06  921.52  928.08  974.13
  997.56 1019.75 1034.65 1191.83 1204.84 1272.21 1296.01 1315.41 1323.62
 1345.39 1359.24 1387.67 1397.57 1412.64 1441.23


--------------------------------------------------------------------------------
  K point     97 =   0.187500  0.562500  0.062500  Weight =    0.004
--------------------------------------------------------------------------------

  Frequencies (cm-1) [NB: Negative implies an imaginary mode]:

  533.66  578.70  671.79  705.97  715.07  840.06  921.52  928.08  974.13
  997.56 1019.75 1034.65 1191.83 1204.84 1272.21 1296.01 1315.41 1323.62
 1345.39 1359.24 1387.67 1397.57 1412.64 1441.23


--------------------------------------------------------------------------------
  K point     98 =   0.187500  0.562500  0.187500  Weight =    0.004
--------------------------------------------------------------------------------

  Frequencies (cm-1) [NB: Negative implies an imaginary mode]:

  559.91  574.24  691.34  692.83  772.55  878.17  881.78  881.78  930.66
  930.66 1035.97 1035.97 1226.83 1226.83 1301.49 1301.49 1324.39 1324.39
 1338.16 1353.53 1379.84 1383.84 1409.41 1440.82


--------------------------------------------------------------------------------
  K point     99 =   0.187500  0.562500  0.312500  Weight =    0.004
--------------------------------------------------------------------------------

  Frequencies (cm-1) [NB: Negative implies an imaginary mode]:

  582.50  626.30  690.82  729.20  802.32  820.04  846.02  855.80  883.20
  927.74 1014.83 1032.50 1253.87 1266.29 1314.88 1322.12 1328.76 1339.85
 1343.89 1347.07 1358.04 1370.55 1400.37 1433.09


--------------------------------------------------------------------------------
  K point    100 =   0.187500  0.562500  0.437500  Weight =    0.004
--------------------------------------------------------------------------------

  Frequencies (cm-1) [NB: Negative implies an imaginary mode]:

  635.24  698.75  713.55  713.55  759.34  777.56  777.56  830.87  916.38
  974.34  974.34 1010.81 1278.16 1301.02 1301.02 1329.10 1331.11 1339.47
 1339.47 1354.93 1361.65 1383.93 1383.93 1414.38


--------------------------------------------------------------------------------
  K point    101 =   0.187500  0.562500  0.562500  Weight =    0.004
--------------------------------------------------------------------------------

  Frequencies (cm-1) [NB: Negative implies an imaginary mode]:

  635.24  698.75  713.55  713.55  759.34  777.56  777.56  830.87  916.38
  974.34  974.34 1010.81 1278.16 1301.02 1301.02 1329.10 1331.11 1339.47
 1339.47 1354.93 1361.65 1383.93 1383.93 1414.38


--------------------------------------------------------------------------------
  K point    102 =   0.187500  0.562500  0.687500  Weight =    0.004
--------------------------------------------------------------------------------

  Frequencies (cm-1) [NB: Negative implies an imaginary mode]:

  582.50  626.30  690.82  729.20  802.32  820.04  846.02  855.80  883.20
  927.74 1014.83 1032.50 1253.87 1266.29 1314.88 1322.12 1328.76 1339.85
 1343.89 1347.07 1358.04 1370.55 1400.37 1433.09


--------------------------------------------------------------------------------
  K point    103 =   0.187500  0.562500  0.812500  Weight =    0.004
--------------------------------------------------------------------------------

  Frequencies (cm-1) [NB: Negative implies an imaginary mode]:

  559.91  574.24  691.34  692.83  772.55  878.17  881.78  881.78  930.66
  930.66 1035.97 1035.97 1226.83 1226.83 1301.49 1301.49 1324.39 1324.39
 1338.16 1353.53 1379.84 1383.84 1409.41 1440.82


--------------------------------------------------------------------------------
  K point    104 =   0.187500  0.562500  0.937500  Weight =    0.004
--------------------------------------------------------------------------------

  Frequencies (cm-1) [NB: Negative implies an imaginary mode]:

  533.66  578.70  671.79  705.97  715.07  840.06  921.52  928.08  974.13
  997.56 1019.75 1034.65 1191.83 1204.84 1272.21 1296.01 1315.41 1323.62
 1345.39 1359.24 1387.67 1397.57 1412.64 1441.23


--------------------------------------------------------------------------------
  K point    105 =   0.187500  0.687500  0.062500  Weight =    0.004
--------------------------------------------------------------------------------

  Frequencies (cm-1) [NB: Negative implies an imaginary mode]:

  398.07  449.94  581.66  802.43  826.53  919.29  944.85  951.49  953.53
 1021.95 1022.54 1054.89 1184.31 1217.72 1241.63 1290.33 1291.86 1312.92
 1317.23 1319.32 1374.11 1419.65 1427.13 1459.78


--------------------------------------------------------------------------------
[...]
--------------------------------------------------------------------------------
  Zero point energy            =        1.600605 eV
  Entropy                      =        0.000002 eV/K
                               =        0.149470 J/(mol.K)
  Helmholtz free-energy        =      -57.221572 eV
                               =    -5521.006492 kJmol-1
  Free energy (equipartition)  =      -58.380762 eV
  - T*S       (equipartition)  =        0.296619 eV
  Uvib        (equipartition)  =        0.144771 eV
  Mean kinetic energy          =        0.800345 eV
  Heat capacity - const volume =        0.000005 eV/K
                               =        0.485301 J/(mol.K)
--------------------------------------------------------------------------------
  Phonon properties (per mole of unit cells): Temperature =     80.000 K
--------------------------------------------------------------------------------
  Zero point energy            =        1.600605 eV
  Entropy                      =        0.000002 eV/K
                               =        0.229884 J/(mol.K)
  Helmholtz free-energy        =      -57.221591 eV
                               =    -5521.008369 kJmol-1
  Free energy (equipartition)  =      -58.339800 eV
  - T*S       (equipartition)  =        0.316900 eV
  Uvib        (equipartition)  =        0.165453 eV
  Mean kinetic energy          =        0.800376 eV
  Heat capacity - const volume =        0.000008 eV/K
                               =        0.737242 J/(mol.K)
--------------------------------------------------------------------------------
  Phonon properties (per mole of unit cells): Temperature =     90.000 K
--------------------------------------------------------------------------------
  Zero point energy            =        1.600605 eV
  Entropy                      =        0.000003 eV/K
                               =        0.335167 J/(mol.K)
  Helmholtz free-energy        =      -57.221620 eV
                               =    -5521.011172 kJmol-1
  Free energy (equipartition)  =      -58.301429 eV
  - T*S       (equipartition)  =        0.334589 eV
  Uvib        (equipartition)  =        0.186134 eV
  Mean kinetic energy          =        0.800423 eV
  Heat capacity - const volume =        0.000011 eV/K
                               =        1.072284 J/(mol.K)
--------------------------------------------------------------------------------
  Phonon properties (per mole of unit cells): Temperature =    100.000 K
--------------------------------------------------------------------------------
  Zero point energy            =        1.600605 eV
  Entropy                      =        0.000005 eV/K
                               =        0.469702 J/(mol.K)
  Helmholtz free-energy        =      -57.221662 eV
                               =    -5521.015170 kJmol-1
  Free energy (equipartition)  =      -58.265361 eV
  - T*S       (equipartition)  =        0.349976 eV
  Uvib        (equipartition)  =        0.206816 eV
  Mean kinetic energy          =        0.800489 eV
  Heat capacity - const volume =        0.000016 eV/K
                               =        1.507223 J/(mol.K)
--------------------------------------------------------------------------------
  Phonon properties (per mole of unit cells): Temperature =    110.000 K
--------------------------------------------------------------------------------
  Zero point energy            =        1.600605 eV
  Entropy                      =        0.000007 eV/K
                               =        0.638248 J/(mol.K)
  Helmholtz free-energy        =      -57.221719 eV
                               =    -5521.020680 kJmol-1
  Free energy (equipartition)  =      -58.231365 eV
  - T*S       (equipartition)  =        0.363291 eV
  Uvib        (equipartition)  =        0.227498 eV
  Mean kinetic energy          =        0.800581 eV
  Heat capacity - const volume =        0.000021 eV/K
                               =        2.059253 J/(mol.K)
--------------------------------------------------------------------------------
  Phonon properties (per mole of unit cells): Temperature =    120.000 K
--------------------------------------------------------------------------------
  Zero point energy            =        1.600605 eV
  Entropy                      =        0.000009 eV/K
                               =        0.845791 J/(mol.K)
  Helmholtz free-energy        =      -57.221795 eV
                               =    -5521.028065 kJmol-1
  Free energy (equipartition)  =      -58.199251 eV
  - T*S       (equipartition)  =        0.374723 eV
  Uvib        (equipartition)  =        0.248179 eV
  Mean kinetic energy          =        0.800705 eV
  Heat capacity - const volume =        0.000028 eV/K
                               =        2.744607 J/(mol.K)
--------------------------------------------------------------------------------
  Phonon properties (per mole of unit cells): Temperature =    130.000 K
--------------------------------------------------------------------------------
  Zero point energy            =        1.600605 eV
  Entropy                      =        0.000011 eV/K
                               =        1.097336 J/(mol.K)
  Helmholtz free-energy        =      -57.221896 eV
                               =    -5521.037742 kJmol-1
  Free energy (equipartition)  =      -58.168863 eV
  - T*S       (equipartition)  =        0.384429 eV
  Uvib        (equipartition)  =        0.268861 eV
  Mean kinetic energy          =        0.800868 eV
  Heat capacity - const volume =        0.000037 eV/K
                               =        3.577369 J/(mol.K)
--------------------------------------------------------------------------------
  Phonon properties (per mole of unit cells): Temperature =    140.000 K
--------------------------------------------------------------------------------
  Zero point energy            =        1.600605 eV
  Entropy                      =        0.000014 eV/K
                               =        1.397719 J/(mol.K)
  Helmholtz free-energy        =      -57.222025 eV
                               =    -5521.050175 kJmol-1
  Free energy (equipartition)  =      -58.140067 eV
  - T*S       (equipartition)  =        0.392543 eV
  Uvib        (equipartition)  =        0.289542 eV
  Mean kinetic energy          =        0.801078 eV
  Heat capacity - const volume =        0.000047 eV/K
                               =        4.568678 J/(mol.K)
--------------------------------------------------------------------------------
  Phonon properties (per mole of unit cells): Temperature =    150.000 K
--------------------------------------------------------------------------------
  Zero point energy            =        1.600605 eV
  Entropy                      =        0.000018 eV/K
                               =        1.751429 J/(mol.K)
  Helmholtz free-energy        =      -57.222187 eV
                               =    -5521.065874 kJmol-1
  Free energy (equipartition)  =      -58.112750 eV
  - T*S       (equipartition)  =        0.399179 eV
  Uvib        (equipartition)  =        0.310224 eV
  Mean kinetic energy          =        0.801344 eV
  Heat capacity - const volume =        0.000059 eV/K
                               =        5.726351 J/(mol.K)
--------------------------------------------------------------------------------
  Phonon properties (per mole of unit cells): Temperature =    160.000 K
--------------------------------------------------------------------------------
  Zero point energy            =        1.600605 eV
  Entropy                      =        0.000022 eV/K
                               =        2.162483 J/(mol.K)
  Helmholtz free-energy        =      -57.222390 eV
                               =    -5521.085395 kJmol-1
  Free energy (equipartition)  =      -58.086813 eV
  - T*S       (equipartition)  =        0.404434 eV
  Uvib        (equipartition)  =        0.330906 eV
  Mean kinetic energy          =        0.801675 eV
  Heat capacity - const volume =        0.000073 eV/K
                               =        7.054837 J/(mol.K)
--------------------------------------------------------------------------------
  Phonon properties (per mole of unit cells): Temperature =    170.000 K
--------------------------------------------------------------------------------
  Zero point energy            =        1.600605 eV
  Entropy                      =        0.000027 eV/K
                               =        2.634337 J/(mol.K)
  Helmholtz free-energy        =      -57.222638 eV
                               =    -5521.109327 kJmol-1
  Free energy (equipartition)  =      -58.062169 eV
  - T*S       (equipartition)  =        0.408397 eV
  Uvib        (equipartition)  =        0.351587 eV
  Mean kinetic energy          =        0.802078 eV
  Heat capacity - const volume =        0.000089 eV/K
                               =        8.555383 J/(mol.K)
--------------------------------------------------------------------------------
  Phonon properties (per mole of unit cells): Temperature =    180.000 K
--------------------------------------------------------------------------------
  Zero point energy            =        1.600605 eV
  Entropy                      =        0.000033 eV/K
                               =        3.169845 J/(mol.K)
  Helmholtz free-energy        =      -57.222938 eV
                               =    -5521.138294 kJmol-1
  Free energy (equipartition)  =      -58.038742 eV
  - T*S       (equipartition)  =        0.411142 eV
  Uvib        (equipartition)  =        0.372269 eV
  Mean kinetic energy          =        0.802564 eV
  Heat capacity - const volume =        0.000106 eV/K
                               =       10.226321 J/(mol.K)
--------------------------------------------------------------------------------
  Phonon properties (per mole of unit cells): Temperature =    190.000 K
--------------------------------------------------------------------------------
  Zero point energy            =        1.600605 eV
  Entropy                      =        0.000039 eV/K
                               =        3.771234 J/(mol.K)
  Helmholtz free-energy        =      -57.223297 eV
                               =    -5521.172943 kJmol-1
  Free energy (equipartition)  =      -58.016465 eV
  - T*S       (equipartition)  =        0.412737 eV
  Uvib        (equipartition)  =        0.392951 eV
  Mean kinetic energy          =        0.803141 eV
  Heat capacity - const volume =        0.000125 eV/K
                               =       12.063406 J/(mol.K)
--------------------------------------------------------------------------------
  Phonon properties (per mole of unit cells): Temperature =    200.000 K
--------------------------------------------------------------------------------
  Zero point energy            =        1.600605 eV
  Entropy                      =        0.000046 eV/K
                               =        4.440112 J/(mol.K)
  Helmholtz free-energy        =      -57.223722 eV
                               =    -5521.213943 kJmol-1
  Free energy (equipartition)  =      -57.995277 eV
  - T*S       (equipartition)  =        0.413244 eV
  Uvib        (equipartition)  =        0.413632 eV
  Mean kinetic energy          =        0.803817 eV
  Heat capacity - const volume =        0.000146 eV/K
                               =       14.060169 J/(mol.K)
--------------------------------------------------------------------------------
  Phonon properties (per mole of unit cells): Temperature =    210.000 K
--------------------------------------------------------------------------------
  Zero point energy            =        1.600605 eV
  Entropy                      =        0.000054 eV/K
                               =        5.177491 J/(mol.K)
  Helmholtz free-energy        =      -57.224220 eV
                               =    -5521.261974 kJmol-1
  Free energy (equipartition)  =      -57.975123 eV
  - T*S       (equipartition)  =        0.412716 eV
  Uvib        (equipartition)  =        0.434314 eV
  Mean kinetic energy          =        0.804601 eV
  Heat capacity - const volume =        0.000168 eV/K
                               =       16.208278 J/(mol.K)
--------------------------------------------------------------------------------
  Phonon properties (per mole of unit cells): Temperature =    220.000 K
--------------------------------------------------------------------------------
  Zero point energy            =        1.600605 eV
  Entropy                      =        0.000062 eV/K
                               =        5.983816 J/(mol.K)
  Helmholtz free-energy        =      -57.224798 eV
                               =    -5521.317723 kJmol-1
  Free energy (equipartition)  =      -57.955955 eV
  - T*S       (equipartition)  =        0.411202 eV
  Uvib        (equipartition)  =        0.454995 eV
  Mean kinetic energy          =        0.805500 eV
  Heat capacity - const volume =        0.000192 eV/K
                               =       18.497877 J/(mol.K)
--------------------------------------------------------------------------------
  Phonon properties (per mole of unit cells): Temperature =    230.000 K
--------------------------------------------------------------------------------
  Zero point energy            =        1.600605 eV
  Entropy                      =        0.000071 eV/K
                               =        6.859006 J/(mol.K)
  Helmholtz free-energy        =      -57.225463 eV
                               =    -5521.381880 kJmol-1
  Free energy (equipartition)  =      -57.937727 eV
  - T*S       (equipartition)  =        0.408749 eV
  Uvib        (equipartition)  =        0.475677 eV
  Mean kinetic energy          =        0.806520 eV
  Heat capacity - const volume =        0.000217 eV/K
                               =       20.917927 J/(mol.K)
--------------------------------------------------------------------------------
  Phonon properties (per mole of unit cells): Temperature =    240.000 K
--------------------------------------------------------------------------------
  Zero point energy            =        1.600605 eV
  Entropy                      =        0.000081 eV/K
                               =        7.802504 J/(mol.K)
  Helmholtz free-energy        =      -57.226222 eV
                               =    -5521.455131 kJmol-1
  Free energy (equipartition)  =      -57.920399 eV
  - T*S       (equipartition)  =        0.405395 eV
  Uvib        (equipartition)  =        0.496359 eV
  Mean kinetic energy          =        0.807670 eV
  Heat capacity - const volume =        0.000243 eV/K
                               =       23.456519 J/(mol.K)
--------------------------------------------------------------------------------
  Phonon properties (per mole of unit cells): Temperature =    250.000 K
--------------------------------------------------------------------------------
  Zero point energy            =        1.600605 eV
  Entropy                      =        0.000091 eV/K
                               =        8.813320 J/(mol.K)
  Helmholtz free-energy        =      -57.227082 eV
                               =    -5521.538154 kJmol-1
  Free energy (equipartition)  =      -57.903932 eV
  - T*S       (equipartition)  =        0.401180 eV
  Uvib        (equipartition)  =        0.517040 eV
  Mean kinetic energy          =        0.808953 eV
  Heat capacity - const volume =        0.000271 eV/K
                               =       26.101167 J/(mol.K)
--------------------------------------------------------------------------------
  Phonon properties (per mole of unit cells): Temperature =    260.000 K
--------------------------------------------------------------------------------
  Zero point energy            =        1.600605 eV
  Entropy                      =        0.000103 eV/K
                               =        9.890083 J/(mol.K)
  Helmholtz free-energy        =      -57.228051 eV
                               =    -5521.631617 kJmol-1
  Free energy (equipartition)  =      -57.888293 eV
  - T*S       (equipartition)  =        0.396138 eV
  Uvib        (equipartition)  =        0.537722 eV
  Mean kinetic energy          =        0.810376 eV
  Heat capacity - const volume =        0.000299 eV/K
                               =       28.839081 J/(mol.K)
--------------------------------------------------------------------------------
  Phonon properties (per mole of unit cells): Temperature =    270.000 K
--------------------------------------------------------------------------------
  Zero point energy            =        1.600605 eV
  Entropy                      =        0.000114 eV/K
                               =       11.031094 J/(mol.K)
  Helmholtz free-energy        =      -57.229135 eV
                               =    -5521.736170 kJmol-1
  Free energy (equipartition)  =      -57.873450 eV
  - T*S       (equipartition)  =        0.390299 eV
  Uvib        (equipartition)  =        0.558403 eV
  Mean kinetic energy          =        0.811944 eV
  Heat capacity - const volume =        0.000328 eV/K
                               =       31.657404 J/(mol.K)
--------------------------------------------------------------------------------
  Phonon properties (per mole of unit cells): Temperature =    280.000 K
--------------------------------------------------------------------------------
  Zero point energy            =        1.600605 eV
  Entropy                      =        0.000127 eV/K
                               =       12.234374 J/(mol.K)
  Helmholtz free-energy        =      -57.230340 eV
                               =    -5521.852447 kJmol-1
  Free energy (equipartition)  =      -57.859373 eV
  - T*S       (equipartition)  =        0.383695 eV
  Uvib        (equipartition)  =        0.579085 eV
  Mean kinetic energy          =        0.813659 eV
  Heat capacity - const volume =        0.000358 eV/K
                               =       34.543422 J/(mol.K)
--------------------------------------------------------------------------------
  Phonon properties (per mole of unit cells): Temperature =    290.000 K
--------------------------------------------------------------------------------
  Zero point energy            =        1.600605 eV
  Entropy                      =        0.000140 eV/K
                               =       13.497710 J/(mol.K)
  Helmholtz free-energy        =      -57.231673 eV
                               =    -5521.981058 kJmol-1
  Free energy (equipartition)  =      -57.846034 eV
  - T*S       (equipartition)  =        0.376352 eV
  Uvib        (equipartition)  =        0.599767 eV
  Mean kinetic energy          =        0.815525 eV
  Heat capacity - const volume =        0.000389 eV/K
                               =       37.484742 J/(mol.K)
--------------------------------------------------------------------------------

  Time to end of properties =       1.2989 seconds


  Peak dynamic memory used =       0.67 MB 


  Timing analysis for GULP :

--------------------------------------------------------------------------------
  Task / Subroutine                                          Time (Seconds)
--------------------------------------------------------------------------------
  Calculation of real space energy and derivatives                0.0005
  Calculation of Brenner energy and derivatives                   1.2593
  Calculation of phonons                                          1.2892
  Disk read/write operations to scratch files                     0.0054
--------------------------------------------------------------------------------
  Total CPU time                                                  1.2989
--------------------------------------------------------------------------------


  Job Finished at 18:11.06 14th August     2020                               

