********************************************************************************
*                       GENERAL UTILITY LATTICE PROGRAM                        *
*                                 Julian Gale                                  *
*                       Curtin Institute for Computation                       *
*                           Department of Chemistry                            *
*                    Curtin University, Western Australia                      *
********************************************************************************
* Version = 5.1.1 * Last modified =  21st January 2019                         *
********************************************************************************
*  single       - perform a single point run                                   *
*  conp         - constant pressure calculation                                *
*  property     - calculate properties for final geometry                      *
*  phonon       - calculate phonons for final geometry                         *
********************************************************************************

  Job Started  at 16:43.08 19th May        2020                               

  Number of CPUs =    20


  Total number of configurations input =      1

********************************************************************************
*  Input for Configuration =   1 : alfa-ZrW2O8_2K                              *
********************************************************************************

  Formula = Zr4W8O32                                                    

  Number of irreducible atoms/shells =      11


  Total number atoms/shells =      76

  Dimensionality = 3               :  Bulk   


  Symmetry :

  Crystal family                   :  Cubic       
  Crystal class  (Groth - 1921)    :  Cubic Tetrahedral-Pentagonaldodecahed

  Space group (noncentrosymmetric) :  P 21 3          

  Patterson group                  :  P m -3   

  Cartesian lattice vectors (Angstroms) :

        9.187567    0.000000    0.000000
        0.000000    9.187567    0.000000
        0.000000    0.000000    9.187567

  Cell parameters (Angstroms/Degrees):

  a =       9.1876    alpha =  90.0000
  b =       9.1876    beta  =  90.0000
  c =       9.1876    gamma =  90.0000

  Initial cell volume =         775.535371 Angs**3

  Shrinking factors =     32    32    32

  Temperature of configuration =  150.0     K 

  Pressure of configuration =         0.000 GPa 

  Fractional coordinates of asymmetric unit :

--------------------------------------------------------------------------------
   No.  Atomic       x           y          z         Charge      Occupancy
        Label      (Frac)      (Frac)     (Frac)        (e)         (Frac)  
--------------------------------------------------------------------------------
      1 Zr    c    0.005725    0.005725    0.005725     4.00000    1.000000    
      2 W1    c    0.338404    0.338404    0.338404     6.00000    1.000000    
      3 W2    c    0.598502    0.598502    0.598502     6.00000    1.000000    
      4 O1    c    0.206080    0.437241    0.441733     0.86902    1.000000    
      5 O2    c    0.786485    0.563365    0.565659     0.86902    1.000000    
      6 O3    c    0.485619    0.485619    0.485619     0.86902    1.000000    
      7 O4    c    0.223543    0.223543    0.223543     0.86902    1.000000    
      8 O1    s    0.212479    0.428613    0.432029    -2.86902    1.000000    
      9 O2    s    0.772871    0.565109    0.566488    -2.86902    1.000000    
     10 O3    s    0.495129    0.495129    0.495129    -2.86902    1.000000    
     11 O4    s    0.235279    0.235279    0.235279    -2.86902    1.000000    
--------------------------------------------------------------------------------


  Brillouin zone sampling points :

--------------------------------------------------------------------------------
  Point number          x          y          z            Weight
--------------------------------------------------------------------------------
        1           0.015625   0.015625   0.015625     0.00024414
        2           0.046875   0.015625   0.015625     0.00073242
        3           0.046875   0.046875   0.015625     0.00073242
        4           0.046875   0.046875   0.046875     0.00024414
        5           0.046875   0.078125   0.015625     0.00073242
        6           0.046875   0.109375   0.015625     0.00073242
        7           0.046875   0.140625   0.015625     0.00073242
        8           0.046875   0.171875   0.015625     0.00073242
        9           0.046875   0.203125   0.015625     0.00073242
       10           0.046875   0.234375   0.015625     0.00073242
       11           0.046875   0.265625   0.015625     0.00073242
       12           0.046875   0.296875   0.015625     0.00073242
       13           0.046875   0.328125   0.015625     0.00073242
       14           0.046875   0.359375   0.015625     0.00073242
       15           0.046875   0.390625   0.015625     0.00073242
       16           0.046875   0.421875   0.015625     0.00073242
       17           0.046875   0.453125   0.015625     0.00073242
       18           0.046875   0.484375   0.015625     0.00073242
       19           0.078125   0.015625   0.015625     0.00073242
       20           0.078125   0.046875   0.015625     0.00073242
       21           0.078125   0.046875   0.046875     0.00073242
       22           0.078125   0.078125   0.015625     0.00073242
       23           0.078125   0.078125   0.046875     0.00073242
       24           0.078125   0.078125   0.078125     0.00024414
       25           0.078125   0.109375   0.015625     0.00073242
       26           0.078125   0.109375   0.046875     0.00073242
       27           0.078125   0.140625   0.015625     0.00073242
       28           0.078125   0.140625   0.046875     0.00073242
       29           0.078125   0.171875   0.015625     0.00073242
       30           0.078125   0.171875   0.046875     0.00073242
       31           0.078125   0.203125   0.015625     0.00073242
       32           0.078125   0.203125   0.046875     0.00073242
       33           0.078125   0.234375   0.015625     0.00073242
       34           0.078125   0.234375   0.046875     0.00073242
       35           0.078125   0.265625   0.015625     0.00073242
       36           0.078125   0.265625   0.046875     0.00073242
       37           0.078125   0.296875   0.015625     0.00073242
       38           0.078125   0.296875   0.046875     0.00073242
       39           0.078125   0.328125   0.015625     0.00073242
       40           0.078125   0.328125   0.046875     0.00073242
       41           0.078125   0.359375   0.015625     0.00073242
       42           0.078125   0.359375   0.046875     0.00073242
       43           0.078125   0.390625   0.015625     0.00073242
       44           0.078125   0.390625   0.046875     0.00073242
       45           0.078125   0.421875   0.015625     0.00073242
       46           0.078125   0.421875   0.046875     0.00073242
       47           0.078125   0.453125   0.015625     0.00073242
       48           0.078125   0.453125   0.046875     0.00073242
       49           0.078125   0.484375   0.015625     0.00073242
       50           0.078125   0.484375   0.046875     0.00073242
       51           0.109375   0.015625   0.015625     0.00073242
       52           0.109375   0.046875   0.015625     0.00073242
       53           0.109375   0.046875   0.046875     0.00073242
       54           0.109375   0.078125   0.015625     0.00073242
       55           0.109375   0.078125   0.046875     0.00073242
       56           0.109375   0.078125   0.078125     0.00073242
       57           0.109375   0.109375   0.015625     0.00073242
       58           0.109375   0.109375   0.046875     0.00073242
       59           0.109375   0.109375   0.078125     0.00073242
       60           0.109375   0.109375   0.109375     0.00024414
       61           0.109375   0.140625   0.015625     0.00073242
       62           0.109375   0.140625   0.046875     0.00073242
       63           0.109375   0.140625   0.078125     0.00073242
       64           0.109375   0.171875   0.015625     0.00073242
       65           0.109375   0.171875   0.046875     0.00073242
       66           0.109375   0.171875   0.078125     0.00073242
       67           0.109375   0.203125   0.015625     0.00073242
       68           0.109375   0.203125   0.046875     0.00073242
       69           0.109375   0.203125   0.078125     0.00073242
       70           0.109375   0.234375   0.015625     0.00073242
       71           0.109375   0.234375   0.046875     0.00073242
       72           0.109375   0.234375   0.078125     0.00073242
       73           0.109375   0.265625   0.015625     0.00073242
       74           0.109375   0.265625   0.046875     0.00073242
       75           0.109375   0.265625   0.078125     0.00073242
       76           0.109375   0.296875   0.015625     0.00073242
       77           0.109375   0.296875   0.046875     0.00073242
       78           0.109375   0.296875   0.078125     0.00073242
       79           0.109375   0.328125   0.015625     0.00073242
       80           0.109375   0.328125   0.046875     0.00073242
       81           0.109375   0.328125   0.078125     0.00073242
       82           0.109375   0.359375   0.015625     0.00073242
       83           0.109375   0.359375   0.046875     0.00073242
       84           0.109375   0.359375   0.078125     0.00073242
       85           0.109375   0.390625   0.015625     0.00073242
       86           0.109375   0.390625   0.046875     0.00073242
       87           0.109375   0.390625   0.078125     0.00073242
       88           0.109375   0.421875   0.015625     0.00073242
       89           0.109375   0.421875   0.046875     0.00073242
       90           0.109375   0.421875   0.078125     0.00073242
       91           0.109375   0.453125   0.015625     0.00073242
       92           0.109375   0.453125   0.046875     0.00073242
       93           0.109375   0.453125   0.078125     0.00073242
       94           0.109375   0.484375   0.015625     0.00073242
       95           0.109375   0.484375   0.046875     0.00073242
       96           0.109375   0.484375   0.078125     0.00073242
       97           0.140625   0.015625   0.015625     0.00073242
       98           0.140625   0.046875   0.015625     0.00073242
       99           0.140625   0.046875   0.046875     0.00073242
      100           0.140625   0.078125   0.015625     0.00073242
      101           0.140625   0.078125   0.046875     0.00073242
      102           0.140625   0.078125   0.078125     0.00073242
      103           0.140625   0.109375   0.015625     0.00073242
      104           0.140625   0.109375   0.046875     0.00073242
      105           0.140625   0.109375   0.078125     0.00073242
      106           0.140625   0.109375   0.109375     0.00073242
      107           0.140625   0.140625   0.015625     0.00073242
      108           0.140625   0.140625   0.046875     0.00073242
      109           0.140625   0.140625   0.078125     0.00073242
      110           0.140625   0.140625   0.109375     0.00073242
      111           0.140625   0.140625   0.140625     0.00024414
      112           0.140625   0.171875   0.015625     0.00073242
      113           0.140625   0.171875   0.046875     0.00073242
      114           0.140625   0.171875   0.078125     0.00073242
      115           0.140625   0.171875   0.109375     0.00073242
      116           0.140625   0.203125   0.015625     0.00073242
      117           0.140625   0.203125   0.046875     0.00073242
      118           0.140625   0.203125   0.078125     0.00073242
      119           0.140625   0.203125   0.109375     0.00073242
      120           0.140625   0.234375   0.015625     0.00073242
      121           0.140625   0.234375   0.046875     0.00073242
      122           0.140625   0.234375   0.078125     0.00073242
      123           0.140625   0.234375   0.109375     0.00073242
      124           0.140625   0.265625   0.015625     0.00073242
      125           0.140625   0.265625   0.046875     0.00073242
      126           0.140625   0.265625   0.078125     0.00073242
      127           0.140625   0.265625   0.109375     0.00073242
      128           0.140625   0.296875   0.015625     0.00073242
      129           0.140625   0.296875   0.046875     0.00073242
      130           0.140625   0.296875   0.078125     0.00073242
      131           0.140625   0.296875   0.109375     0.00073242
      132           0.140625   0.328125   0.015625     0.00073242
      133           0.140625   0.328125   0.046875     0.00073242
      134           0.140625   0.328125   0.078125     0.00073242
      135           0.140625   0.328125   0.109375     0.00073242
      136           0.140625   0.359375   0.015625     0.00073242
      137           0.140625   0.359375   0.046875     0.00073242
      138           0.140625   0.359375   0.078125     0.00073242
      139           0.140625   0.359375   0.109375     0.00073242
      140           0.140625   0.390625   0.015625     0.00073242
      141           0.140625   0.390625   0.046875     0.00073242
      142           0.140625   0.390625   0.078125     0.00073242
      143           0.140625   0.390625   0.109375     0.00073242
      144           0.140625   0.421875   0.015625     0.00073242
      145           0.140625   0.421875   0.046875     0.00073242
      146           0.140625   0.421875   0.078125     0.00073242
      147           0.140625   0.421875   0.109375     0.00073242
      148           0.140625   0.453125   0.015625     0.00073242
      149           0.140625   0.453125   0.046875     0.00073242
      150           0.140625   0.453125   0.078125     0.00073242
      151           0.140625   0.453125   0.109375     0.00073242
      152           0.140625   0.484375   0.015625     0.00073242
      153           0.140625   0.484375   0.046875     0.00073242
      154           0.140625   0.484375   0.078125     0.00073242
      155           0.140625   0.484375   0.109375     0.00073242
      156           0.171875   0.015625   0.015625     0.00073242
      157           0.171875   0.046875   0.015625     0.00073242
      158           0.171875   0.046875   0.046875     0.00073242
      159           0.171875   0.078125   0.015625     0.00073242
      160           0.171875   0.078125   0.046875     0.00073242
      161           0.171875   0.078125   0.078125     0.00073242
      162           0.171875   0.109375   0.015625     0.00073242
      163           0.171875   0.109375   0.046875     0.00073242
      164           0.171875   0.109375   0.078125     0.00073242
      165           0.171875   0.109375   0.109375     0.00073242
      166           0.171875   0.140625   0.015625     0.00073242
      167           0.171875   0.140625   0.046875     0.00073242
      168           0.171875   0.140625   0.078125     0.00073242
      169           0.171875   0.140625   0.109375     0.00073242
      170           0.171875   0.140625   0.140625     0.00073242
      171           0.171875   0.171875   0.015625     0.00073242
      172           0.171875   0.171875   0.046875     0.00073242
      173           0.171875   0.171875   0.078125     0.00073242
      174           0.171875   0.171875   0.109375     0.00073242
      175           0.171875   0.171875   0.140625     0.00073242
      176           0.171875   0.171875   0.171875     0.00024414
      177           0.171875   0.203125   0.015625     0.00073242
      178           0.171875   0.203125   0.046875     0.00073242
      179           0.171875   0.203125   0.078125     0.00073242
      180           0.171875   0.203125   0.109375     0.00073242
      181           0.171875   0.203125   0.140625     0.00073242
      182           0.171875   0.234375   0.015625     0.00073242
      183           0.171875   0.234375   0.046875     0.00073242
      184           0.171875   0.234375   0.078125     0.00073242
      185           0.171875   0.234375   0.109375     0.00073242
      186           0.171875   0.234375   0.140625     0.00073242
      187           0.171875   0.265625   0.015625     0.00073242
      188           0.171875   0.265625   0.046875     0.00073242
      189           0.171875   0.265625   0.078125     0.00073242
      190           0.171875   0.265625   0.109375     0.00073242
      191           0.171875   0.265625   0.140625     0.00073242
      192           0.171875   0.296875   0.015625     0.00073242
      193           0.171875   0.296875   0.046875     0.00073242
      194           0.171875   0.296875   0.078125     0.00073242
      195           0.171875   0.296875   0.109375     0.00073242
      196           0.171875   0.296875   0.140625     0.00073242
      197           0.171875   0.328125   0.015625     0.00073242
      198           0.171875   0.328125   0.046875     0.00073242
      199           0.171875   0.328125   0.078125     0.00073242
      200           0.171875   0.328125   0.109375     0.00073242
      201           0.171875   0.328125   0.140625     0.00073242
      202           0.171875   0.359375   0.015625     0.00073242
      203           0.171875   0.359375   0.046875     0.00073242
      204           0.171875   0.359375   0.078125     0.00073242
      205           0.171875   0.359375   0.109375     0.00073242
      206           0.171875   0.359375   0.140625     0.00073242
      207           0.171875   0.390625   0.015625     0.00073242
      208           0.171875   0.390625   0.046875     0.00073242
      209           0.171875   0.390625   0.078125     0.00073242
      210           0.171875   0.390625   0.109375     0.00073242
      211           0.171875   0.390625   0.140625     0.00073242
      212           0.171875   0.421875   0.015625     0.00073242
      213           0.171875   0.421875   0.046875     0.00073242
      214           0.171875   0.421875   0.078125     0.00073242
      215           0.171875   0.421875   0.109375     0.00073242
      216           0.171875   0.421875   0.140625     0.00073242
      217           0.171875   0.453125   0.015625     0.00073242
      218           0.171875   0.453125   0.046875     0.00073242
      219           0.171875   0.453125   0.078125     0.00073242
      220           0.171875   0.453125   0.109375     0.00073242
      221           0.171875   0.453125   0.140625     0.00073242
      222           0.171875   0.484375   0.015625     0.00073242
      223           0.171875   0.484375   0.046875     0.00073242
      224           0.171875   0.484375   0.078125     0.00073242
      225           0.171875   0.484375   0.109375     0.00073242
      226           0.171875   0.484375   0.140625     0.00073242
      227           0.203125   0.015625   0.015625     0.00073242
      228           0.203125   0.046875   0.015625     0.00073242
      229           0.203125   0.046875   0.046875     0.00073242
      230           0.203125   0.078125   0.015625     0.00073242
      231           0.203125   0.078125   0.046875     0.00073242
      232           0.203125   0.078125   0.078125     0.00073242
      233           0.203125   0.109375   0.015625     0.00073242
      234           0.203125   0.109375   0.046875     0.00073242
      235           0.203125   0.109375   0.078125     0.00073242
      236           0.203125   0.109375   0.109375     0.00073242
      237           0.203125   0.140625   0.015625     0.00073242
      238           0.203125   0.140625   0.046875     0.00073242
      239           0.203125   0.140625   0.078125     0.00073242
      240           0.203125   0.140625   0.109375     0.00073242
      241           0.203125   0.140625   0.140625     0.00073242
      242           0.203125   0.171875   0.015625     0.00073242
      243           0.203125   0.171875   0.046875     0.00073242
      244           0.203125   0.171875   0.078125     0.00073242
      245           0.203125   0.171875   0.109375     0.00073242
      246           0.203125   0.171875   0.140625     0.00073242
      247           0.203125   0.171875   0.171875     0.00073242
      248           0.203125   0.203125   0.015625     0.00073242
      249           0.203125   0.203125   0.046875     0.00073242
      250           0.203125   0.203125   0.078125     0.00073242
      251           0.203125   0.203125   0.109375     0.00073242
      252           0.203125   0.203125   0.140625     0.00073242
      253           0.203125   0.203125   0.171875     0.00073242
      254           0.203125   0.203125   0.203125     0.00024414
      255           0.203125   0.234375   0.015625     0.00073242
      256           0.203125   0.234375   0.046875     0.00073242
      257           0.203125   0.234375   0.078125     0.00073242
      258           0.203125   0.234375   0.109375     0.00073242
      259           0.203125   0.234375   0.140625     0.00073242
      260           0.203125   0.234375   0.171875     0.00073242
      261           0.203125   0.265625   0.015625     0.00073242
      262           0.203125   0.265625   0.046875     0.00073242
      263           0.203125   0.265625   0.078125     0.00073242
      264           0.203125   0.265625   0.109375     0.00073242
      265           0.203125   0.265625   0.140625     0.00073242
      266           0.203125   0.265625   0.171875     0.00073242
      267           0.203125   0.296875   0.015625     0.00073242
      268           0.203125   0.296875   0.046875     0.00073242
      269           0.203125   0.296875   0.078125     0.00073242
      270           0.203125   0.296875   0.109375     0.00073242
      271           0.203125   0.296875   0.140625     0.00073242
      272           0.203125   0.296875   0.171875     0.00073242
      273           0.203125   0.328125   0.015625     0.00073242
      274           0.203125   0.328125   0.046875     0.00073242
      275           0.203125   0.328125   0.078125     0.00073242
      276           0.203125   0.328125   0.109375     0.00073242
      277           0.203125   0.328125   0.140625     0.00073242
      278           0.203125   0.328125   0.171875     0.00073242
      279           0.203125   0.359375   0.015625     0.00073242
      280           0.203125   0.359375   0.046875     0.00073242
      281           0.203125   0.359375   0.078125     0.00073242
      282           0.203125   0.359375   0.109375     0.00073242
      283           0.203125   0.359375   0.140625     0.00073242
      284           0.203125   0.359375   0.171875     0.00073242
      285           0.203125   0.390625   0.015625     0.00073242
      286           0.203125   0.390625   0.046875     0.00073242
      287           0.203125   0.390625   0.078125     0.00073242
      288           0.203125   0.390625   0.109375     0.00073242
      289           0.203125   0.390625   0.140625     0.00073242
      290           0.203125   0.390625   0.171875     0.00073242
      291           0.203125   0.421875   0.015625     0.00073242
      292           0.203125   0.421875   0.046875     0.00073242
      293           0.203125   0.421875   0.078125     0.00073242
      294           0.203125   0.421875   0.109375     0.00073242
      295           0.203125   0.421875   0.140625     0.00073242
      296           0.203125   0.421875   0.171875     0.00073242
      297           0.203125   0.453125   0.015625     0.00073242
      298           0.203125   0.453125   0.046875     0.00073242
      299           0.203125   0.453125   0.078125     0.00073242
      300           0.203125   0.453125   0.109375     0.00073242
      301           0.203125   0.453125   0.140625     0.00073242
      302           0.203125   0.453125   0.171875     0.00073242
      303           0.203125   0.484375   0.015625     0.00073242
      304           0.203125   0.484375   0.046875     0.00073242
      305           0.203125   0.484375   0.078125     0.00073242
      306           0.203125   0.484375   0.109375     0.00073242
      307           0.203125   0.484375   0.140625     0.00073242
      308           0.203125   0.484375   0.171875     0.00073242
      309           0.234375   0.015625   0.015625     0.00073242
      310           0.234375   0.046875   0.015625     0.00073242
      311           0.234375   0.046875   0.046875     0.00073242
      312           0.234375   0.078125   0.015625     0.00073242
      313           0.234375   0.078125   0.046875     0.00073242
      314           0.234375   0.078125   0.078125     0.00073242
      315           0.234375   0.109375   0.015625     0.00073242
      316           0.234375   0.109375   0.046875     0.00073242
      317           0.234375   0.109375   0.078125     0.00073242
      318           0.234375   0.109375   0.109375     0.00073242
      319           0.234375   0.140625   0.015625     0.00073242
      320           0.234375   0.140625   0.046875     0.00073242
      321           0.234375   0.140625   0.078125     0.00073242
      322           0.234375   0.140625   0.109375     0.00073242
      323           0.234375   0.140625   0.140625     0.00073242
      324           0.234375   0.171875   0.015625     0.00073242
      325           0.234375   0.171875   0.046875     0.00073242
      326           0.234375   0.171875   0.078125     0.00073242
      327           0.234375   0.171875   0.109375     0.00073242
      328           0.234375   0.171875   0.140625     0.00073242
      329           0.234375   0.171875   0.171875     0.00073242
      330           0.234375   0.203125   0.015625     0.00073242
      331           0.234375   0.203125   0.046875     0.00073242
      332           0.234375   0.203125   0.078125     0.00073242
      333           0.234375   0.203125   0.109375     0.00073242
      334           0.234375   0.203125   0.140625     0.00073242
      335           0.234375   0.203125   0.171875     0.00073242
      336           0.234375   0.203125   0.203125     0.00073242
      337           0.234375   0.234375   0.015625     0.00073242
      338           0.234375   0.234375   0.046875     0.00073242
      339           0.234375   0.234375   0.078125     0.00073242
      340           0.234375   0.234375   0.109375     0.00073242
      341           0.234375   0.234375   0.140625     0.00073242
      342           0.234375   0.234375   0.171875     0.00073242
      343           0.234375   0.234375   0.203125     0.00073242
      344           0.234375   0.234375   0.234375     0.00024414
      345           0.234375   0.265625   0.015625     0.00073242
      346           0.234375   0.265625   0.046875     0.00073242
      347           0.234375   0.265625   0.078125     0.00073242
      348           0.234375   0.265625   0.109375     0.00073242
      349           0.234375   0.265625   0.140625     0.00073242
      350           0.234375   0.265625   0.171875     0.00073242
      351           0.234375   0.265625   0.203125     0.00073242
      352           0.234375   0.296875   0.015625     0.00073242
      353           0.234375   0.296875   0.046875     0.00073242
      354           0.234375   0.296875   0.078125     0.00073242
      355           0.234375   0.296875   0.109375     0.00073242
      356           0.234375   0.296875   0.140625     0.00073242
      357           0.234375   0.296875   0.171875     0.00073242
      358           0.234375   0.296875   0.203125     0.00073242
      359           0.234375   0.328125   0.015625     0.00073242
      360           0.234375   0.328125   0.046875     0.00073242
      361           0.234375   0.328125   0.078125     0.00073242
      362           0.234375   0.328125   0.109375     0.00073242
      363           0.234375   0.328125   0.140625     0.00073242
      364           0.234375   0.328125   0.171875     0.00073242
      365           0.234375   0.328125   0.203125     0.00073242
      366           0.234375   0.359375   0.015625     0.00073242
      367           0.234375   0.359375   0.046875     0.00073242
      368           0.234375   0.359375   0.078125     0.00073242
      369           0.234375   0.359375   0.109375     0.00073242
      370           0.234375   0.359375   0.140625     0.00073242
      371           0.234375   0.359375   0.171875     0.00073242
      372           0.234375   0.359375   0.203125     0.00073242
      373           0.234375   0.390625   0.015625     0.00073242
      374           0.234375   0.390625   0.046875     0.00073242
      375           0.234375   0.390625   0.078125     0.00073242
      376           0.234375   0.390625   0.109375     0.00073242
      377           0.234375   0.390625   0.140625     0.00073242
      378           0.234375   0.390625   0.171875     0.00073242
      379           0.234375   0.390625   0.203125     0.00073242
      380           0.234375   0.421875   0.015625     0.00073242
      381           0.234375   0.421875   0.046875     0.00073242
      382           0.234375   0.421875   0.078125     0.00073242
      383           0.234375   0.421875   0.109375     0.00073242
      384           0.234375   0.421875   0.140625     0.00073242
      385           0.234375   0.421875   0.171875     0.00073242
      386           0.234375   0.421875   0.203125     0.00073242
      387           0.234375   0.453125   0.015625     0.00073242
      388           0.234375   0.453125   0.046875     0.00073242
      389           0.234375   0.453125   0.078125     0.00073242
      390           0.234375   0.453125   0.109375     0.00073242
      391           0.234375   0.453125   0.140625     0.00073242
      392           0.234375   0.453125   0.171875     0.00073242
      393           0.234375   0.453125   0.203125     0.00073242
      394           0.234375   0.484375   0.015625     0.00073242
      395           0.234375   0.484375   0.046875     0.00073242
      396           0.234375   0.484375   0.078125     0.00073242
      397           0.234375   0.484375   0.109375     0.00073242
      398           0.234375   0.484375   0.140625     0.00073242
      399           0.234375   0.484375   0.171875     0.00073242
      400           0.234375   0.484375   0.203125     0.00073242
      401           0.265625   0.015625   0.015625     0.00073242
      402           0.265625   0.046875   0.015625     0.00073242
      403           0.265625   0.046875   0.046875     0.00073242
      404           0.265625   0.078125   0.015625     0.00073242
      405           0.265625   0.078125   0.046875     0.00073242
      406           0.265625   0.078125   0.078125     0.00073242
      407           0.265625   0.109375   0.015625     0.00073242
      408           0.265625   0.109375   0.046875     0.00073242
      409           0.265625   0.109375   0.078125     0.00073242
      410           0.265625   0.109375   0.109375     0.00073242
      411           0.265625   0.140625   0.015625     0.00073242
      412           0.265625   0.140625   0.046875     0.00073242
      413           0.265625   0.140625   0.078125     0.00073242
      414           0.265625   0.140625   0.109375     0.00073242
      415           0.265625   0.140625   0.140625     0.00073242
      416           0.265625   0.171875   0.015625     0.00073242
      417           0.265625   0.171875   0.046875     0.00073242
      418           0.265625   0.171875   0.078125     0.00073242
      419           0.265625   0.171875   0.109375     0.00073242
      420           0.265625   0.171875   0.140625     0.00073242
      421           0.265625   0.171875   0.171875     0.00073242
      422           0.265625   0.203125   0.015625     0.00073242
      423           0.265625   0.203125   0.046875     0.00073242
      424           0.265625   0.203125   0.078125     0.00073242
      425           0.265625   0.203125   0.109375     0.00073242
      426           0.265625   0.203125   0.140625     0.00073242
      427           0.265625   0.203125   0.171875     0.00073242
      428           0.265625   0.203125   0.203125     0.00073242
      429           0.265625   0.234375   0.015625     0.00073242
      430           0.265625   0.234375   0.046875     0.00073242
      431           0.265625   0.234375   0.078125     0.00073242
      432           0.265625   0.234375   0.109375     0.00073242
      433           0.265625   0.234375   0.140625     0.00073242
      434           0.265625   0.234375   0.171875     0.00073242
      435           0.265625   0.234375   0.203125     0.00073242
      436           0.265625   0.234375   0.234375     0.00073242
      437           0.265625   0.265625   0.015625     0.00073242
      438           0.265625   0.265625   0.046875     0.00073242
      439           0.265625   0.265625   0.078125     0.00073242
      440           0.265625   0.265625   0.109375     0.00073242
      441           0.265625   0.265625   0.140625     0.00073242
      442           0.265625   0.265625   0.171875     0.00073242
      443           0.265625   0.265625   0.203125     0.00073242
      444           0.265625   0.265625   0.234375     0.00073242
      445           0.265625   0.265625   0.265625     0.00024414
      446           0.265625   0.296875   0.015625     0.00073242
      447           0.265625   0.296875   0.046875     0.00073242
      448           0.265625   0.296875   0.078125     0.00073242
      449           0.265625   0.296875   0.109375     0.00073242
      450           0.265625   0.296875   0.140625     0.00073242
      451           0.265625   0.296875   0.171875     0.00073242
      452           0.265625   0.296875   0.203125     0.00073242
      453           0.265625   0.296875   0.234375     0.00073242
      454           0.265625   0.328125   0.015625     0.00073242
      455           0.265625   0.328125   0.046875     0.00073242
      456           0.265625   0.328125   0.078125     0.00073242
      457           0.265625   0.328125   0.109375     0.00073242
      458           0.265625   0.328125   0.140625     0.00073242
      459           0.265625   0.328125   0.171875     0.00073242
      460           0.265625   0.328125   0.203125     0.00073242
      461           0.265625   0.328125   0.234375     0.00073242
      462           0.265625   0.359375   0.015625     0.00073242
      463           0.265625   0.359375   0.046875     0.00073242
      464           0.265625   0.359375   0.078125     0.00073242
      465           0.265625   0.359375   0.109375     0.00073242
      466           0.265625   0.359375   0.140625     0.00073242
      467           0.265625   0.359375   0.171875     0.00073242
      468           0.265625   0.359375   0.203125     0.00073242
      469           0.265625   0.359375   0.234375     0.00073242
      470           0.265625   0.390625   0.015625     0.00073242
      471           0.265625   0.390625   0.046875     0.00073242
      472           0.265625   0.390625   0.078125     0.00073242
      473           0.265625   0.390625   0.109375     0.00073242
      474           0.265625   0.390625   0.140625     0.00073242
      475           0.265625   0.390625   0.171875     0.00073242
      476           0.265625   0.390625   0.203125     0.00073242
      477           0.265625   0.390625   0.234375     0.00073242
      478           0.265625   0.421875   0.015625     0.00073242
      479           0.265625   0.421875   0.046875     0.00073242
      480           0.265625   0.421875   0.078125     0.00073242
      481           0.265625   0.421875   0.109375     0.00073242
      482           0.265625   0.421875   0.140625     0.00073242
      483           0.265625   0.421875   0.171875     0.00073242
      484           0.265625   0.421875   0.203125     0.00073242
      485           0.265625   0.421875   0.234375     0.00073242
      486           0.265625   0.453125   0.015625     0.00073242
      487           0.265625   0.453125   0.046875     0.00073242
      488           0.265625   0.453125   0.078125     0.00073242
      489           0.265625   0.453125   0.109375     0.00073242
      490           0.265625   0.453125   0.140625     0.00073242
      491           0.265625   0.453125   0.171875     0.00073242
      492           0.265625   0.453125   0.203125     0.00073242
      493           0.265625   0.453125   0.234375     0.00073242
      494           0.265625   0.484375   0.015625     0.00073242
      495           0.265625   0.484375   0.046875     0.00073242
      496           0.265625   0.484375   0.078125     0.00073242
      497           0.265625   0.484375   0.109375     0.00073242
      498           0.265625   0.484375   0.140625     0.00073242
      499           0.265625   0.484375   0.171875     0.00073242
      500           0.265625   0.484375   0.203125     0.00073242
      501           0.265625   0.484375   0.234375     0.00073242
      502           0.296875   0.015625   0.015625     0.00073242
      503           0.296875   0.046875   0.015625     0.00073242
      504           0.296875   0.046875   0.046875     0.00073242
      505           0.296875   0.078125   0.015625     0.00073242
      506           0.296875   0.078125   0.046875     0.00073242
      507           0.296875   0.078125   0.078125     0.00073242
      508           0.296875   0.109375   0.015625     0.00073242
      509           0.296875   0.109375   0.046875     0.00073242
      510           0.296875   0.109375   0.078125     0.00073242
      511           0.296875   0.109375   0.109375     0.00073242
      512           0.296875   0.140625   0.015625     0.00073242
      513           0.296875   0.140625   0.046875     0.00073242
      514           0.296875   0.140625   0.078125     0.00073242
      515           0.296875   0.140625   0.109375     0.00073242
      516           0.296875   0.140625   0.140625     0.00073242
      517           0.296875   0.171875   0.015625     0.00073242
      518           0.296875   0.171875   0.046875     0.00073242
      519           0.296875   0.171875   0.078125     0.00073242
      520           0.296875   0.171875   0.109375     0.00073242
      521           0.296875   0.171875   0.140625     0.00073242
      522           0.296875   0.171875   0.171875     0.00073242
      523           0.296875   0.203125   0.015625     0.00073242
      524           0.296875   0.203125   0.046875     0.00073242
      525           0.296875   0.203125   0.078125     0.00073242
      526           0.296875   0.203125   0.109375     0.00073242
      527           0.296875   0.203125   0.140625     0.00073242
      528           0.296875   0.203125   0.171875     0.00073242
      529           0.296875   0.203125   0.203125     0.00073242
      530           0.296875   0.234375   0.015625     0.00073242
      531           0.296875   0.234375   0.046875     0.00073242
      532           0.296875   0.234375   0.078125     0.00073242
      533           0.296875   0.234375   0.109375     0.00073242
      534           0.296875   0.234375   0.140625     0.00073242
      535           0.296875   0.234375   0.171875     0.00073242
      536           0.296875   0.234375   0.203125     0.00073242
      537           0.296875   0.234375   0.234375     0.00073242
      538           0.296875   0.265625   0.015625     0.00073242
      539           0.296875   0.265625   0.046875     0.00073242
      540           0.296875   0.265625   0.078125     0.00073242
      541           0.296875   0.265625   0.109375     0.00073242
      542           0.296875   0.265625   0.140625     0.00073242
      543           0.296875   0.265625   0.171875     0.00073242
      544           0.296875   0.265625   0.203125     0.00073242
      545           0.296875   0.265625   0.234375     0.00073242
      546           0.296875   0.265625   0.265625     0.00073242
      547           0.296875   0.296875   0.015625     0.00073242
      548           0.296875   0.296875   0.046875     0.00073242
      549           0.296875   0.296875   0.078125     0.00073242
      550           0.296875   0.296875   0.109375     0.00073242
      551           0.296875   0.296875   0.140625     0.00073242
      552           0.296875   0.296875   0.171875     0.00073242
      553           0.296875   0.296875   0.203125     0.00073242
      554           0.296875   0.296875   0.234375     0.00073242
      555           0.296875   0.296875   0.265625     0.00073242
      556           0.296875   0.296875   0.296875     0.00024414
      557           0.296875   0.328125   0.015625     0.00073242
      558           0.296875   0.328125   0.046875     0.00073242
      559           0.296875   0.328125   0.078125     0.00073242
      560           0.296875   0.328125   0.109375     0.00073242
      561           0.296875   0.328125   0.140625     0.00073242
      562           0.296875   0.328125   0.171875     0.00073242
      563           0.296875   0.328125   0.203125     0.00073242
      564           0.296875   0.328125   0.234375     0.00073242
      565           0.296875   0.328125   0.265625     0.00073242
      566           0.296875   0.359375   0.015625     0.00073242
      567           0.296875   0.359375   0.046875     0.00073242
      568           0.296875   0.359375   0.078125     0.00073242
      569           0.296875   0.359375   0.109375     0.00073242
      570           0.296875   0.359375   0.140625     0.00073242
      571           0.296875   0.359375   0.171875     0.00073242
      572           0.296875   0.359375   0.203125     0.00073242
      573           0.296875   0.359375   0.234375     0.00073242
      574           0.296875   0.359375   0.265625     0.00073242
      575           0.296875   0.390625   0.015625     0.00073242
      576           0.296875   0.390625   0.046875     0.00073242
      577           0.296875   0.390625   0.078125     0.00073242
      578           0.296875   0.390625   0.109375     0.00073242
      579           0.296875   0.390625   0.140625     0.00073242
      580           0.296875   0.390625   0.171875     0.00073242
      581           0.296875   0.390625   0.203125     0.00073242
      582           0.296875   0.390625   0.234375     0.00073242
      583           0.296875   0.390625   0.265625     0.00073242
      584           0.296875   0.421875   0.015625     0.00073242
      585           0.296875   0.421875   0.046875     0.00073242
      586           0.296875   0.421875   0.078125     0.00073242
      587           0.296875   0.421875   0.109375     0.00073242
      588           0.296875   0.421875   0.140625     0.00073242
      589           0.296875   0.421875   0.171875     0.00073242
      590           0.296875   0.421875   0.203125     0.00073242
      591           0.296875   0.421875   0.234375     0.00073242
      592           0.296875   0.421875   0.265625     0.00073242
      593           0.296875   0.453125   0.015625     0.00073242
      594           0.296875   0.453125   0.046875     0.00073242
      595           0.296875   0.453125   0.078125     0.00073242
      596           0.296875   0.453125   0.109375     0.00073242
      597           0.296875   0.453125   0.140625     0.00073242
      598           0.296875   0.453125   0.171875     0.00073242
      599           0.296875   0.453125   0.203125     0.00073242
      600           0.296875   0.453125   0.234375     0.00073242
      601           0.296875   0.453125   0.265625     0.00073242
      602           0.296875   0.484375   0.015625     0.00073242
      603           0.296875   0.484375   0.046875     0.00073242
      604           0.296875   0.484375   0.078125     0.00073242
      605           0.296875   0.484375   0.109375     0.00073242
      606           0.296875   0.484375   0.140625     0.00073242
      607           0.296875   0.484375   0.171875     0.00073242
      608           0.296875   0.484375   0.203125     0.00073242
      609           0.296875   0.484375   0.234375     0.00073242
      610           0.296875   0.484375   0.265625     0.00073242
      611           0.328125   0.015625   0.015625     0.00073242
      612           0.328125   0.046875   0.015625     0.00073242
      613           0.328125   0.046875   0.046875     0.00073242
      614           0.328125   0.078125   0.015625     0.00073242
      615           0.328125   0.078125   0.046875     0.00073242
      616           0.328125   0.078125   0.078125     0.00073242
      617           0.328125   0.109375   0.015625     0.00073242
      618           0.328125   0.109375   0.046875     0.00073242
      619           0.328125   0.109375   0.078125     0.00073242
      620           0.328125   0.109375   0.109375     0.00073242
      621           0.328125   0.140625   0.015625     0.00073242
      622           0.328125   0.140625   0.046875     0.00073242
      623           0.328125   0.140625   0.078125     0.00073242
      624           0.328125   0.140625   0.109375     0.00073242
      625           0.328125   0.140625   0.140625     0.00073242
      626           0.328125   0.171875   0.015625     0.00073242
      627           0.328125   0.171875   0.046875     0.00073242
      628           0.328125   0.171875   0.078125     0.00073242
      629           0.328125   0.171875   0.109375     0.00073242
      630           0.328125   0.171875   0.140625     0.00073242
      631           0.328125   0.171875   0.171875     0.00073242
      632           0.328125   0.203125   0.015625     0.00073242
      633           0.328125   0.203125   0.046875     0.00073242
      634           0.328125   0.203125   0.078125     0.00073242
      635           0.328125   0.203125   0.109375     0.00073242
      636           0.328125   0.203125   0.140625     0.00073242
      637           0.328125   0.203125   0.171875     0.00073242
      638           0.328125   0.203125   0.203125     0.00073242
      639           0.328125   0.234375   0.015625     0.00073242
      640           0.328125   0.234375   0.046875     0.00073242
      641           0.328125   0.234375   0.078125     0.00073242
      642           0.328125   0.234375   0.109375     0.00073242
      643           0.328125   0.234375   0.140625     0.00073242
      644           0.328125   0.234375   0.171875     0.00073242
      645           0.328125   0.234375   0.203125     0.00073242
      646           0.328125   0.234375   0.234375     0.00073242
      647           0.328125   0.265625   0.015625     0.00073242
      648           0.328125   0.265625   0.046875     0.00073242
      649           0.328125   0.265625   0.078125     0.00073242
      650           0.328125   0.265625   0.109375     0.00073242
      651           0.328125   0.265625   0.140625     0.00073242
      652           0.328125   0.265625   0.171875     0.00073242
      653           0.328125   0.265625   0.203125     0.00073242
      654           0.328125   0.265625   0.234375     0.00073242
      655           0.328125   0.265625   0.265625     0.00073242
      656           0.328125   0.296875   0.015625     0.00073242
      657           0.328125   0.296875   0.046875     0.00073242
      658           0.328125   0.296875   0.078125     0.00073242
      659           0.328125   0.296875   0.109375     0.00073242
      660           0.328125   0.296875   0.140625     0.00073242
      661           0.328125   0.296875   0.171875     0.00073242
      662           0.328125   0.296875   0.203125     0.00073242
      663           0.328125   0.296875   0.234375     0.00073242
      664           0.328125   0.296875   0.265625     0.00073242
      665           0.328125   0.296875   0.296875     0.00073242
      666           0.328125   0.328125   0.015625     0.00073242
      667           0.328125   0.328125   0.046875     0.00073242
      668           0.328125   0.328125   0.078125     0.00073242
      669           0.328125   0.328125   0.109375     0.00073242
      670           0.328125   0.328125   0.140625     0.00073242
      671           0.328125   0.328125   0.171875     0.00073242
      672           0.328125   0.328125   0.203125     0.00073242
      673           0.328125   0.328125   0.234375     0.00073242
      674           0.328125   0.328125   0.265625     0.00073242
      675           0.328125   0.328125   0.296875     0.00073242
      676           0.328125   0.328125   0.328125     0.00024414
      677           0.328125   0.359375   0.015625     0.00073242
      678           0.328125   0.359375   0.046875     0.00073242
      679           0.328125   0.359375   0.078125     0.00073242
      680           0.328125   0.359375   0.109375     0.00073242
      681           0.328125   0.359375   0.140625     0.00073242
      682           0.328125   0.359375   0.171875     0.00073242
      683           0.328125   0.359375   0.203125     0.00073242
      684           0.328125   0.359375   0.234375     0.00073242
      685           0.328125   0.359375   0.265625     0.00073242
      686           0.328125   0.359375   0.296875     0.00073242
      687           0.328125   0.390625   0.015625     0.00073242
      688           0.328125   0.390625   0.046875     0.00073242
      689           0.328125   0.390625   0.078125     0.00073242
      690           0.328125   0.390625   0.109375     0.00073242
      691           0.328125   0.390625   0.140625     0.00073242
      692           0.328125   0.390625   0.171875     0.00073242
      693           0.328125   0.390625   0.203125     0.00073242
      694           0.328125   0.390625   0.234375     0.00073242
      695           0.328125   0.390625   0.265625     0.00073242
      696           0.328125   0.390625   0.296875     0.00073242
      697           0.328125   0.421875   0.015625     0.00073242
      698           0.328125   0.421875   0.046875     0.00073242
      699           0.328125   0.421875   0.078125     0.00073242
      700           0.328125   0.421875   0.109375     0.00073242
      701           0.328125   0.421875   0.140625     0.00073242
      702           0.328125   0.421875   0.171875     0.00073242
      703           0.328125   0.421875   0.203125     0.00073242
      704           0.328125   0.421875   0.234375     0.00073242
      705           0.328125   0.421875   0.265625     0.00073242
      706           0.328125   0.421875   0.296875     0.00073242
      707           0.328125   0.453125   0.015625     0.00073242
      708           0.328125   0.453125   0.046875     0.00073242
      709           0.328125   0.453125   0.078125     0.00073242
      710           0.328125   0.453125   0.109375     0.00073242
      711           0.328125   0.453125   0.140625     0.00073242
      712           0.328125   0.453125   0.171875     0.00073242
      713           0.328125   0.453125   0.203125     0.00073242
      714           0.328125   0.453125   0.234375     0.00073242
      715           0.328125   0.453125   0.265625     0.00073242
      716           0.328125   0.453125   0.296875     0.00073242
      717           0.328125   0.484375   0.015625     0.00073242
      718           0.328125   0.484375   0.046875     0.00073242
      719           0.328125   0.484375   0.078125     0.00073242
      720           0.328125   0.484375   0.109375     0.00073242
      721           0.328125   0.484375   0.140625     0.00073242
      722           0.328125   0.484375   0.171875     0.00073242
      723           0.328125   0.484375   0.203125     0.00073242
      724           0.328125   0.484375   0.234375     0.00073242
      725           0.328125   0.484375   0.265625     0.00073242
      726           0.328125   0.484375   0.296875     0.00073242
      727           0.359375   0.015625   0.015625     0.00073242
      728           0.359375   0.046875   0.015625     0.00073242
      729           0.359375   0.046875   0.046875     0.00073242
      730           0.359375   0.078125   0.015625     0.00073242
      731           0.359375   0.078125   0.046875     0.00073242
      732           0.359375   0.078125   0.078125     0.00073242
      733           0.359375   0.109375   0.015625     0.00073242
      734           0.359375   0.109375   0.046875     0.00073242
      735           0.359375   0.109375   0.078125     0.00073242
      736           0.359375   0.109375   0.109375     0.00073242
      737           0.359375   0.140625   0.015625     0.00073242
      738           0.359375   0.140625   0.046875     0.00073242
      739           0.359375   0.140625   0.078125     0.00073242
      740           0.359375   0.140625   0.109375     0.00073242
      741           0.359375   0.140625   0.140625     0.00073242
      742           0.359375   0.171875   0.015625     0.00073242
      743           0.359375   0.171875   0.046875     0.00073242
      744           0.359375   0.171875   0.078125     0.00073242
      745           0.359375   0.171875   0.109375     0.00073242
      746           0.359375   0.171875   0.140625     0.00073242
      747           0.359375   0.171875   0.171875     0.00073242
      748           0.359375   0.203125   0.015625     0.00073242
      749           0.359375   0.203125   0.046875     0.00073242
      750           0.359375   0.203125   0.078125     0.00073242
      751           0.359375   0.203125   0.109375     0.00073242
      752           0.359375   0.203125   0.140625     0.00073242
      753           0.359375   0.203125   0.171875     0.00073242
      754           0.359375   0.203125   0.203125     0.00073242
      755           0.359375   0.234375   0.015625     0.00073242
      756           0.359375   0.234375   0.046875     0.00073242
      757           0.359375   0.234375   0.078125     0.00073242
      758           0.359375   0.234375   0.109375     0.00073242
      759           0.359375   0.234375   0.140625     0.00073242
      760           0.359375   0.234375   0.171875     0.00073242
      761           0.359375   0.234375   0.203125     0.00073242
      762           0.359375   0.234375   0.234375     0.00073242
      763           0.359375   0.265625   0.015625     0.00073242
      764           0.359375   0.265625   0.046875     0.00073242
      765           0.359375   0.265625   0.078125     0.00073242
      766           0.359375   0.265625   0.109375     0.00073242
      767           0.359375   0.265625   0.140625     0.00073242
      768           0.359375   0.265625   0.171875     0.00073242
      769           0.359375   0.265625   0.203125     0.00073242
      770           0.359375   0.265625   0.234375     0.00073242
      771           0.359375   0.265625   0.265625     0.00073242
      772           0.359375   0.296875   0.015625     0.00073242
      773           0.359375   0.296875   0.046875     0.00073242
      774           0.359375   0.296875   0.078125     0.00073242
      775           0.359375   0.296875   0.109375     0.00073242
      776           0.359375   0.296875   0.140625     0.00073242
      777           0.359375   0.296875   0.171875     0.00073242
      778           0.359375   0.296875   0.203125     0.00073242
      779           0.359375   0.296875   0.234375     0.00073242
      780           0.359375   0.296875   0.265625     0.00073242
      781           0.359375   0.296875   0.296875     0.00073242
      782           0.359375   0.328125   0.015625     0.00073242
      783           0.359375   0.328125   0.046875     0.00073242
      784           0.359375   0.328125   0.078125     0.00073242
      785           0.359375   0.328125   0.109375     0.00073242
      786           0.359375   0.328125   0.140625     0.00073242
      787           0.359375   0.328125   0.171875     0.00073242
      788           0.359375   0.328125   0.203125     0.00073242
      789           0.359375   0.328125   0.234375     0.00073242
      790           0.359375   0.328125   0.265625     0.00073242
      791           0.359375   0.328125   0.296875     0.00073242
      792           0.359375   0.328125   0.328125     0.00073242
      793           0.359375   0.359375   0.015625     0.00073242
      794           0.359375   0.359375   0.046875     0.00073242
      795           0.359375   0.359375   0.078125     0.00073242
      796           0.359375   0.359375   0.109375     0.00073242
      797           0.359375   0.359375   0.140625     0.00073242
      798           0.359375   0.359375   0.171875     0.00073242
      799           0.359375   0.359375   0.203125     0.00073242
      800           0.359375   0.359375   0.234375     0.00073242
      801           0.359375   0.359375   0.265625     0.00073242
      802           0.359375   0.359375   0.296875     0.00073242
      803           0.359375   0.359375   0.328125     0.00073242
      804           0.359375   0.359375   0.359375     0.00024414
      805           0.359375   0.390625   0.015625     0.00073242
      806           0.359375   0.390625   0.046875     0.00073242
      807           0.359375   0.390625   0.078125     0.00073242
      808           0.359375   0.390625   0.109375     0.00073242
      809           0.359375   0.390625   0.140625     0.00073242
      810           0.359375   0.390625   0.171875     0.00073242
      811           0.359375   0.390625   0.203125     0.00073242
      812           0.359375   0.390625   0.234375     0.00073242
      813           0.359375   0.390625   0.265625     0.00073242
      814           0.359375   0.390625   0.296875     0.00073242
      815           0.359375   0.390625   0.328125     0.00073242
      816           0.359375   0.421875   0.015625     0.00073242
      817           0.359375   0.421875   0.046875     0.00073242
      818           0.359375   0.421875   0.078125     0.00073242
      819           0.359375   0.421875   0.109375     0.00073242
      820           0.359375   0.421875   0.140625     0.00073242
      821           0.359375   0.421875   0.171875     0.00073242
      822           0.359375   0.421875   0.203125     0.00073242
      823           0.359375   0.421875   0.234375     0.00073242
      824           0.359375   0.421875   0.265625     0.00073242
      825           0.359375   0.421875   0.296875     0.00073242
      826           0.359375   0.421875   0.328125     0.00073242
      827           0.359375   0.453125   0.015625     0.00073242
      828           0.359375   0.453125   0.046875     0.00073242
      829           0.359375   0.453125   0.078125     0.00073242
      830           0.359375   0.453125   0.109375     0.00073242
      831           0.359375   0.453125   0.140625     0.00073242
      832           0.359375   0.453125   0.171875     0.00073242
      833           0.359375   0.453125   0.203125     0.00073242
      834           0.359375   0.453125   0.234375     0.00073242
      835           0.359375   0.453125   0.265625     0.00073242
      836           0.359375   0.453125   0.296875     0.00073242
      837           0.359375   0.453125   0.328125     0.00073242
      838           0.359375   0.484375   0.015625     0.00073242
      839           0.359375   0.484375   0.046875     0.00073242
      840           0.359375   0.484375   0.078125     0.00073242
      841           0.359375   0.484375   0.109375     0.00073242
      842           0.359375   0.484375   0.140625     0.00073242
      843           0.359375   0.484375   0.171875     0.00073242
      844           0.359375   0.484375   0.203125     0.00073242
      845           0.359375   0.484375   0.234375     0.00073242
      846           0.359375   0.484375   0.265625     0.00073242
      847           0.359375   0.484375   0.296875     0.00073242
      848           0.359375   0.484375   0.328125     0.00073242
      849           0.390625   0.015625   0.015625     0.00073242
      850           0.390625   0.046875   0.015625     0.00073242
      851           0.390625   0.046875   0.046875     0.00073242
      852           0.390625   0.078125   0.015625     0.00073242
      853           0.390625   0.078125   0.046875     0.00073242
      854           0.390625   0.078125   0.078125     0.00073242
      855           0.390625   0.109375   0.015625     0.00073242
      856           0.390625   0.109375   0.046875     0.00073242
      857           0.390625   0.109375   0.078125     0.00073242
      858           0.390625   0.109375   0.109375     0.00073242
      859           0.390625   0.140625   0.015625     0.00073242
      860           0.390625   0.140625   0.046875     0.00073242
      861           0.390625   0.140625   0.078125     0.00073242
      862           0.390625   0.140625   0.109375     0.00073242
      863           0.390625   0.140625   0.140625     0.00073242
      864           0.390625   0.171875   0.015625     0.00073242
      865           0.390625   0.171875   0.046875     0.00073242
      866           0.390625   0.171875   0.078125     0.00073242
      867           0.390625   0.171875   0.109375     0.00073242
      868           0.390625   0.171875   0.140625     0.00073242
      869           0.390625   0.171875   0.171875     0.00073242
      870           0.390625   0.203125   0.015625     0.00073242
      871           0.390625   0.203125   0.046875     0.00073242
      872           0.390625   0.203125   0.078125     0.00073242
      873           0.390625   0.203125   0.109375     0.00073242
      874           0.390625   0.203125   0.140625     0.00073242
      875           0.390625   0.203125   0.171875     0.00073242
      876           0.390625   0.203125   0.203125     0.00073242
      877           0.390625   0.234375   0.015625     0.00073242
      878           0.390625   0.234375   0.046875     0.00073242
      879           0.390625   0.234375   0.078125     0.00073242
      880           0.390625   0.234375   0.109375     0.00073242
      881           0.390625   0.234375   0.140625     0.00073242
      882           0.390625   0.234375   0.171875     0.00073242
      883           0.390625   0.234375   0.203125     0.00073242
      884           0.390625   0.234375   0.234375     0.00073242
      885           0.390625   0.265625   0.015625     0.00073242
      886           0.390625   0.265625   0.046875     0.00073242
      887           0.390625   0.265625   0.078125     0.00073242
      888           0.390625   0.265625   0.109375     0.00073242
      889           0.390625   0.265625   0.140625     0.00073242
      890           0.390625   0.265625   0.171875     0.00073242
      891           0.390625   0.265625   0.203125     0.00073242
      892           0.390625   0.265625   0.234375     0.00073242
      893           0.390625   0.265625   0.265625     0.00073242
      894           0.390625   0.296875   0.015625     0.00073242
      895           0.390625   0.296875   0.046875     0.00073242
      896           0.390625   0.296875   0.078125     0.00073242
      897           0.390625   0.296875   0.109375     0.00073242
      898           0.390625   0.296875   0.140625     0.00073242
      899           0.390625   0.296875   0.171875     0.00073242
      900           0.390625   0.296875   0.203125     0.00073242
      901           0.390625   0.296875   0.234375     0.00073242
      902           0.390625   0.296875   0.265625     0.00073242
      903           0.390625   0.296875   0.296875     0.00073242
      904           0.390625   0.328125   0.015625     0.00073242
      905           0.390625   0.328125   0.046875     0.00073242
      906           0.390625   0.328125   0.078125     0.00073242
      907           0.390625   0.328125   0.109375     0.00073242
      908           0.390625   0.328125   0.140625     0.00073242
      909           0.390625   0.328125   0.171875     0.00073242
      910           0.390625   0.328125   0.203125     0.00073242
      911           0.390625   0.328125   0.234375     0.00073242
      912           0.390625   0.328125   0.265625     0.00073242
      913           0.390625   0.328125   0.296875     0.00073242
      914           0.390625   0.328125   0.328125     0.00073242
      915           0.390625   0.359375   0.015625     0.00073242
      916           0.390625   0.359375   0.046875     0.00073242
      917           0.390625   0.359375   0.078125     0.00073242
      918           0.390625   0.359375   0.109375     0.00073242
      919           0.390625   0.359375   0.140625     0.00073242
      920           0.390625   0.359375   0.171875     0.00073242
      921           0.390625   0.359375   0.203125     0.00073242
      922           0.390625   0.359375   0.234375     0.00073242
      923           0.390625   0.359375   0.265625     0.00073242
      924           0.390625   0.359375   0.296875     0.00073242
      925           0.390625   0.359375   0.328125     0.00073242
      926           0.390625   0.359375   0.359375     0.00073242
      927           0.390625   0.390625   0.015625     0.00073242
      928           0.390625   0.390625   0.046875     0.00073242
      929           0.390625   0.390625   0.078125     0.00073242
      930           0.390625   0.390625   0.109375     0.00073242
      931           0.390625   0.390625   0.140625     0.00073242
      932           0.390625   0.390625   0.171875     0.00073242
      933           0.390625   0.390625   0.203125     0.00073242
      934           0.390625   0.390625   0.234375     0.00073242
      935           0.390625   0.390625   0.265625     0.00073242
      936           0.390625   0.390625   0.296875     0.00073242
      937           0.390625   0.390625   0.328125     0.00073242
      938           0.390625   0.390625   0.359375     0.00073242
      939           0.390625   0.390625   0.390625     0.00024414
      940           0.390625   0.421875   0.015625     0.00073242
      941           0.390625   0.421875   0.046875     0.00073242
      942           0.390625   0.421875   0.078125     0.00073242
      943           0.390625   0.421875   0.109375     0.00073242
      944           0.390625   0.421875   0.140625     0.00073242
      945           0.390625   0.421875   0.171875     0.00073242
      946           0.390625   0.421875   0.203125     0.00073242
      947           0.390625   0.421875   0.234375     0.00073242
      948           0.390625   0.421875   0.265625     0.00073242
      949           0.390625   0.421875   0.296875     0.00073242
      950           0.390625   0.421875   0.328125     0.00073242
      951           0.390625   0.421875   0.359375     0.00073242
      952           0.390625   0.453125   0.015625     0.00073242
      953           0.390625   0.453125   0.046875     0.00073242
      954           0.390625   0.453125   0.078125     0.00073242
      955           0.390625   0.453125   0.109375     0.00073242
      956           0.390625   0.453125   0.140625     0.00073242
      957           0.390625   0.453125   0.171875     0.00073242
      958           0.390625   0.453125   0.203125     0.00073242
      959           0.390625   0.453125   0.234375     0.00073242
      960           0.390625   0.453125   0.265625     0.00073242
      961           0.390625   0.453125   0.296875     0.00073242
      962           0.390625   0.453125   0.328125     0.00073242
      963           0.390625   0.453125   0.359375     0.00073242
      964           0.390625   0.484375   0.015625     0.00073242
      965           0.390625   0.484375   0.046875     0.00073242
      966           0.390625   0.484375   0.078125     0.00073242
      967           0.390625   0.484375   0.109375     0.00073242
      968           0.390625   0.484375   0.140625     0.00073242
      969           0.390625   0.484375   0.171875     0.00073242
      970           0.390625   0.484375   0.203125     0.00073242
      971           0.390625   0.484375   0.234375     0.00073242
      972           0.390625   0.484375   0.265625     0.00073242
      973           0.390625   0.484375   0.296875     0.00073242
      974           0.390625   0.484375   0.328125     0.00073242
      975           0.390625   0.484375   0.359375     0.00073242
      976           0.421875   0.015625   0.015625     0.00073242
      977           0.421875   0.046875   0.015625     0.00073242
      978           0.421875   0.046875   0.046875     0.00073242
      979           0.421875   0.078125   0.015625     0.00073242
      980           0.421875   0.078125   0.046875     0.00073242
      981           0.421875   0.078125   0.078125     0.00073242
      982           0.421875   0.109375   0.015625     0.00073242
      983           0.421875   0.109375   0.046875     0.00073242
      984           0.421875   0.109375   0.078125     0.00073242
      985           0.421875   0.109375   0.109375     0.00073242
      986           0.421875   0.140625   0.015625     0.00073242
      987           0.421875   0.140625   0.046875     0.00073242
      988           0.421875   0.140625   0.078125     0.00073242
      989           0.421875   0.140625   0.109375     0.00073242
      990           0.421875   0.140625   0.140625     0.00073242
      991           0.421875   0.171875   0.015625     0.00073242
      992           0.421875   0.171875   0.046875     0.00073242
      993           0.421875   0.171875   0.078125     0.00073242
      994           0.421875   0.171875   0.109375     0.00073242
      995           0.421875   0.171875   0.140625     0.00073242
      996           0.421875   0.171875   0.171875     0.00073242
      997           0.421875   0.203125   0.015625     0.00073242
      998           0.421875   0.203125   0.046875     0.00073242
      999           0.421875   0.203125   0.078125     0.00073242
     1000           0.421875   0.203125   0.109375     0.00073242
     1001           0.421875   0.203125   0.140625     0.00073242
     1002           0.421875   0.203125   0.171875     0.00073242
     1003           0.421875   0.203125   0.203125     0.00073242
     1004           0.421875   0.234375   0.015625     0.00073242
     1005           0.421875   0.234375   0.046875     0.00073242
     1006           0.421875   0.234375   0.078125     0.00073242
     1007           0.421875   0.234375   0.109375     0.00073242
     1008           0.421875   0.234375   0.140625     0.00073242
     1009           0.421875   0.234375   0.171875     0.00073242
     1010           0.421875   0.234375   0.203125     0.00073242
     1011           0.421875   0.234375   0.234375     0.00073242
     1012           0.421875   0.265625   0.015625     0.00073242
     1013           0.421875   0.265625   0.046875     0.00073242
     1014           0.421875   0.265625   0.078125     0.00073242
     1015           0.421875   0.265625   0.109375     0.00073242
     1016           0.421875   0.265625   0.140625     0.00073242
     1017           0.421875   0.265625   0.171875     0.00073242
     1018           0.421875   0.265625   0.203125     0.00073242
     1019           0.421875   0.265625   0.234375     0.00073242
     1020           0.421875   0.265625   0.265625     0.00073242
     1021           0.421875   0.296875   0.015625     0.00073242
     1022           0.421875   0.296875   0.046875     0.00073242
     1023           0.421875   0.296875   0.078125     0.00073242
     1024           0.421875   0.296875   0.109375     0.00073242
     1025           0.421875   0.296875   0.140625     0.00073242
     1026           0.421875   0.296875   0.171875     0.00073242
     1027           0.421875   0.296875   0.203125     0.00073242
     1028           0.421875   0.296875   0.234375     0.00073242
     1029           0.421875   0.296875   0.265625     0.00073242
     1030           0.421875   0.296875   0.296875     0.00073242
     1031           0.421875   0.328125   0.015625     0.00073242
     1032           0.421875   0.328125   0.046875     0.00073242
     1033           0.421875   0.328125   0.078125     0.00073242
     1034           0.421875   0.328125   0.109375     0.00073242
     1035           0.421875   0.328125   0.140625     0.00073242
     1036           0.421875   0.328125   0.171875     0.00073242
     1037           0.421875   0.328125   0.203125     0.00073242
     1038           0.421875   0.328125   0.234375     0.00073242
     1039           0.421875   0.328125   0.265625     0.00073242
     1040           0.421875   0.328125   0.296875     0.00073242
     1041           0.421875   0.328125   0.328125     0.00073242
     1042           0.421875   0.359375   0.015625     0.00073242
     1043           0.421875   0.359375   0.046875     0.00073242
     1044           0.421875   0.359375   0.078125     0.00073242
     1045           0.421875   0.359375   0.109375     0.00073242
     1046           0.421875   0.359375   0.140625     0.00073242
     1047           0.421875   0.359375   0.171875     0.00073242
     1048           0.421875   0.359375   0.203125     0.00073242
     1049           0.421875   0.359375   0.234375     0.00073242
     1050           0.421875   0.359375   0.265625     0.00073242
     1051           0.421875   0.359375   0.296875     0.00073242
     1052           0.421875   0.359375   0.328125     0.00073242
     1053           0.421875   0.359375   0.359375     0.00073242
     1054           0.421875   0.390625   0.015625     0.00073242
     1055           0.421875   0.390625   0.046875     0.00073242
     1056           0.421875   0.390625   0.078125     0.00073242
     1057           0.421875   0.390625   0.109375     0.00073242
     1058           0.421875   0.390625   0.140625     0.00073242
     1059           0.421875   0.390625   0.171875     0.00073242
     1060           0.421875   0.390625   0.203125     0.00073242
     1061           0.421875   0.390625   0.234375     0.00073242
     1062           0.421875   0.390625   0.265625     0.00073242
     1063           0.421875   0.390625   0.296875     0.00073242
     1064           0.421875   0.390625   0.328125     0.00073242
     1065           0.421875   0.390625   0.359375     0.00073242
     1066           0.421875   0.390625   0.390625     0.00073242
     1067           0.421875   0.421875   0.015625     0.00073242
     1068           0.421875   0.421875   0.046875     0.00073242
     1069           0.421875   0.421875   0.078125     0.00073242
     1070           0.421875   0.421875   0.109375     0.00073242
     1071           0.421875   0.421875   0.140625     0.00073242
     1072           0.421875   0.421875   0.171875     0.00073242
     1073           0.421875   0.421875   0.203125     0.00073242
     1074           0.421875   0.421875   0.234375     0.00073242
     1075           0.421875   0.421875   0.265625     0.00073242
     1076           0.421875   0.421875   0.296875     0.00073242
     1077           0.421875   0.421875   0.328125     0.00073242
     1078           0.421875   0.421875   0.359375     0.00073242
     1079           0.421875   0.421875   0.390625     0.00073242
     1080           0.421875   0.421875   0.421875     0.00024414
     1081           0.421875   0.453125   0.015625     0.00073242
     1082           0.421875   0.453125   0.046875     0.00073242
     1083           0.421875   0.453125   0.078125     0.00073242
     1084           0.421875   0.453125   0.109375     0.00073242
     1085           0.421875   0.453125   0.140625     0.00073242
     1086           0.421875   0.453125   0.171875     0.00073242
     1087           0.421875   0.453125   0.203125     0.00073242
     1088           0.421875   0.453125   0.234375     0.00073242
     1089           0.421875   0.453125   0.265625     0.00073242
     1090           0.421875   0.453125   0.296875     0.00073242
     1091           0.421875   0.453125   0.328125     0.00073242
     1092           0.421875   0.453125   0.359375     0.00073242
     1093           0.421875   0.453125   0.390625     0.00073242
     1094           0.421875   0.484375   0.015625     0.00073242
     1095           0.421875   0.484375   0.046875     0.00073242
     1096           0.421875   0.484375   0.078125     0.00073242
     1097           0.421875   0.484375   0.109375     0.00073242
     1098           0.421875   0.484375   0.140625     0.00073242
     1099           0.421875   0.484375   0.171875     0.00073242
     1100           0.421875   0.484375   0.203125     0.00073242
     1101           0.421875   0.484375   0.234375     0.00073242
     1102           0.421875   0.484375   0.265625     0.00073242
     1103           0.421875   0.484375   0.296875     0.00073242
     1104           0.421875   0.484375   0.328125     0.00073242
     1105           0.421875   0.484375   0.359375     0.00073242
     1106           0.421875   0.484375   0.390625     0.00073242
     1107           0.453125   0.015625   0.015625     0.00073242
     1108           0.453125   0.046875   0.015625     0.00073242
     1109           0.453125   0.046875   0.046875     0.00073242
     1110           0.453125   0.078125   0.015625     0.00073242
     1111           0.453125   0.078125   0.046875     0.00073242
     1112           0.453125   0.078125   0.078125     0.00073242
     1113           0.453125   0.109375   0.015625     0.00073242
     1114           0.453125   0.109375   0.046875     0.00073242
     1115           0.453125   0.109375   0.078125     0.00073242
     1116           0.453125   0.109375   0.109375     0.00073242
     1117           0.453125   0.140625   0.015625     0.00073242
     1118           0.453125   0.140625   0.046875     0.00073242
     1119           0.453125   0.140625   0.078125     0.00073242
     1120           0.453125   0.140625   0.109375     0.00073242
     1121           0.453125   0.140625   0.140625     0.00073242
     1122           0.453125   0.171875   0.015625     0.00073242
     1123           0.453125   0.171875   0.046875     0.00073242
     1124           0.453125   0.171875   0.078125     0.00073242
     1125           0.453125   0.171875   0.109375     0.00073242
     1126           0.453125   0.171875   0.140625     0.00073242
     1127           0.453125   0.171875   0.171875     0.00073242
     1128           0.453125   0.203125   0.015625     0.00073242
     1129           0.453125   0.203125   0.046875     0.00073242
     1130           0.453125   0.203125   0.078125     0.00073242
     1131           0.453125   0.203125   0.109375     0.00073242
     1132           0.453125   0.203125   0.140625     0.00073242
     1133           0.453125   0.203125   0.171875     0.00073242
     1134           0.453125   0.203125   0.203125     0.00073242
     1135           0.453125   0.234375   0.015625     0.00073242
     1136           0.453125   0.234375   0.046875     0.00073242
     1137           0.453125   0.234375   0.078125     0.00073242
     1138           0.453125   0.234375   0.109375     0.00073242
     1139           0.453125   0.234375   0.140625     0.00073242
     1140           0.453125   0.234375   0.171875     0.00073242
     1141           0.453125   0.234375   0.203125     0.00073242
     1142           0.453125   0.234375   0.234375     0.00073242
     1143           0.453125   0.265625   0.015625     0.00073242
     1144           0.453125   0.265625   0.046875     0.00073242
     1145           0.453125   0.265625   0.078125     0.00073242
     1146           0.453125   0.265625   0.109375     0.00073242
     1147           0.453125   0.265625   0.140625     0.00073242
     1148           0.453125   0.265625   0.171875     0.00073242
     1149           0.453125   0.265625   0.203125     0.00073242
     1150           0.453125   0.265625   0.234375     0.00073242
[...]


--------------------------------------------------------------------------------
  K point   1364 =   0.484375  0.484375  0.109375  Weight =    0.001
--------------------------------------------------------------------------------

  Frequencies (cm-1) [NB: Negative implies an imaginary mode]:

   32.34   32.46   44.28   44.36   52.33   52.50   55.57   55.72   72.23
   72.40   79.46   79.59   89.64   90.04   91.76   92.06  105.07  105.25
  106.16  106.27  116.73  116.74  125.47  125.68  131.18  131.61  132.07
  132.64  145.92  146.01  150.39  150.47  174.04  174.18  177.40  177.63
  188.00  188.21  194.88  195.00  199.98  200.27  202.90  203.05  211.14
  211.22  217.03  217.11  253.76  254.37  255.52  256.10  270.78  271.01
  272.11  272.38  283.67  283.74  286.60  286.74  303.70  303.75  305.72
  305.82  316.12  316.28  319.53  319.68  338.62  338.72  342.95  343.02
  358.13  358.42  359.58  359.86  372.32  372.38  378.87  378.94  385.19
  385.26  391.73  391.78  394.97  395.09  398.94  399.16  433.50  433.51
  440.10  440.15  450.32  450.42  462.29  462.36  488.32  488.40  491.26
  491.31 1146.62 1146.62 1146.79 1146.79 1180.77 1180.77 1180.84 1180.84
 1182.92 1182.92 1183.11 1183.11 1230.47 1230.47 1230.49 1230.49 1230.58
 1230.58 1230.64 1230.64 1233.75 1233.75 1234.14 1234.14 1242.59 1242.60
 1242.62 1242.63 1242.85 1242.85 1242.88 1242.89


--------------------------------------------------------------------------------
  K point   1365 =   0.484375  0.484375  0.140625  Weight =    0.001
--------------------------------------------------------------------------------

  Frequencies (cm-1) [NB: Negative implies an imaginary mode]:

   32.59   32.70   43.53   43.63   52.34   52.55   55.34   55.53   71.61
   71.78   79.03   79.14   90.83   91.18   92.82   93.08  104.96  105.10
  106.30  106.39  117.16  117.17  125.06  125.27  131.21  131.66  132.07
  132.66  145.25  145.36  150.12  150.22  173.45  173.56  177.21  177.42
  187.69  187.89  194.88  195.00  200.65  201.02  202.38  202.61  211.55
  211.64  217.19  217.26  253.56  254.16  255.58  256.17  270.14  270.32
  272.35  272.56  283.51  283.58  287.23  287.36  303.69  303.74  306.06
  306.15  316.34  316.57  318.41  318.62  338.26  338.34  343.35  343.41
  359.04  359.48  360.05  360.50  372.29  372.35  379.88  379.95  385.14
  385.21  390.91  390.93  394.82  394.95  398.84  399.08  433.46  433.47
  439.78  439.84  450.36  450.46  461.47  461.54  488.76  488.85  491.40
  491.46 1146.62 1146.62 1146.79 1146.79 1180.80 1180.80 1180.87 1180.88
 1182.89 1182.89 1183.08 1183.08 1230.47 1230.47 1230.49 1230.49 1230.58
 1230.58 1230.64 1230.64 1233.75 1233.75 1234.13 1234.13 1242.60 1242.60
 1242.63 1242.63 1242.84 1242.85 1242.88 1242.88


--------------------------------------------------------------------------------
  K point   1366 =   0.484375  0.484375  0.171875  Weight =    0.001
--------------------------------------------------------------------------------

  Frequencies (cm-1) [NB: Negative implies an imaginary mode]:

   32.88   32.98   42.77   42.89   52.37   52.64   55.12   55.38   70.99
   71.15   78.44   78.54   92.13   92.42   93.93   94.16  104.88  104.99
  106.50  106.58  117.59  117.62  124.50  124.70  131.30  131.77  132.12
  132.72  144.46  144.59  149.66  149.77  172.98  173.08  177.10  177.30
  187.37  187.55  194.73  194.84  201.16  201.59  202.07  202.38  212.01
  212.11  217.35  217.43  253.28  253.87  255.49  256.10  269.72  269.88
  272.56  272.75  283.39  283.47  287.55  287.69  303.92  303.97  306.45
  306.54  316.33  316.76  317.35  317.73  337.88  337.96  343.57  343.63
  359.98  360.60  360.74  361.37  372.52  372.59  380.87  380.95  385.03
  385.11  389.96  389.98  394.65  394.79  398.71  398.96  433.42  433.42
  439.40  439.45  450.40  450.50  460.55  460.60  489.25  489.34  491.58
  491.63 1146.63 1146.63 1146.79 1146.79 1180.84 1180.84 1180.92 1180.92
 1182.85 1182.85 1183.04 1183.04 1230.47 1230.47 1230.49 1230.50 1230.58
 1230.58 1230.64 1230.64 1233.75 1233.76 1234.12 1234.12 1242.61 1242.61
 1242.63 1242.64 1242.84 1242.84 1242.87 1242.87


--------------------------------------------------------------------------------
  K point   1367 =   0.484375  0.484375  0.203125  Weight =    0.001
--------------------------------------------------------------------------------

  Frequencies (cm-1) [NB: Negative implies an imaginary mode]:

   33.21   33.31   42.09   42.23   52.41   52.75   54.96   55.31   70.36
   70.52   77.70   77.79   93.46   93.70   95.04   95.25  104.86  104.95
  106.76  106.84  117.99  118.05  123.77  123.98  131.43  131.89  132.27
  132.84  143.59  143.72  148.97  149.09  172.72  172.82  177.11  177.30
  187.05  187.21  194.38  194.48  201.19  201.35  202.60  202.70  212.55
  212.65  217.51  217.60  252.91  253.51  255.19  255.84  269.62  269.78
  272.73  272.92  283.32  283.43  287.52  287.66  304.42  304.48  306.86
  306.96  315.84  316.20  317.02  317.32  337.53  337.61  343.58  343.64
  360.87  361.26  362.11  362.52  373.01  373.07  381.82  381.91  384.79
  384.87  389.02  389.04  394.47  394.63  398.52  398.79  433.37  433.38
  438.94  439.00  450.45  450.54  459.55  459.60  489.75  489.85  491.77
  491.83 1146.63 1146.63 1146.78 1146.78 1180.88 1180.89 1180.96 1180.97
 1182.81 1182.81 1182.99 1183.00 1230.47 1230.47 1230.50 1230.50 1230.58
 1230.58 1230.64 1230.64 1233.76 1233.76 1234.10 1234.10 1242.61 1242.62
 1242.64 1242.65 1242.83 1242.84 1242.86 1242.87


--------------------------------------------------------------------------------
  K point   1368 =   0.484375  0.484375  0.234375  Weight =    0.001
--------------------------------------------------------------------------------

  Frequencies (cm-1) [NB: Negative implies an imaginary mode]:

   33.59   33.71   41.55   41.70   52.48   52.89   54.91   55.34   69.72
   69.87   76.80   76.89   94.75   94.96   96.10   96.31  104.95  105.02
  107.10  107.18  118.27  118.38  122.90  123.13  131.59  132.00  132.52
  133.03  142.68  142.82  148.05  148.18  172.75  172.86  177.24  177.44
  186.70  186.85  193.81  193.88  200.97  201.10  203.19  203.31  213.15
  213.25  217.67  217.77  252.44  253.05  254.65  255.35  269.86  270.03
  272.86  273.05  283.30  283.44  287.14  287.30  305.17  305.23  307.27
  307.38  315.11  315.35  317.00  317.18  337.23  337.31  343.38  343.44
  361.72  361.98  363.59  363.88  373.69  373.75  382.70  382.83  384.27
  384.37  388.27  388.31  394.29  394.45  398.27  398.55  433.32  433.34
  438.43  438.49  450.50  450.59  458.53  458.58  490.26  490.36  491.97
  492.02 1146.64 1146.64 1146.78 1146.78 1180.93 1180.94 1181.02 1181.02
 1182.76 1182.76 1182.94 1182.94 1230.48 1230.48 1230.50 1230.50 1230.58
 1230.58 1230.64 1230.64 1233.77 1233.77 1234.09 1234.09 1242.62 1242.63
 1242.65 1242.66 1242.83 1242.83 1242.85 1242.86


--------------------------------------------------------------------------------
  K point   1369 =   0.484375  0.484375  0.265625  Weight =    0.001
--------------------------------------------------------------------------------

  Frequencies (cm-1) [NB: Negative implies an imaginary mode]:

   34.04   34.19   41.20   41.33   52.59   53.05   54.98   55.47   69.06
   69.20   75.73   75.83   95.96   96.15   97.09   97.31  105.16  105.25
  107.51  107.62  118.38  118.56  121.91  122.18  131.78  132.13  132.84
  133.27  141.79  141.94  146.92  147.07  173.08  173.20  177.52  177.73
  186.34  186.47  192.99  193.05  200.81  200.97  203.71  203.84  213.82
  213.92  217.85  217.96  251.88  252.51  253.92  254.65  270.38  270.59
  272.98  273.19  283.32  283.50  286.49  286.69  306.06  306.14  307.67
  307.82  314.45  314.67  316.85  316.99  337.01  337.09  342.99  343.06
  362.57  362.76  365.13  365.36  374.48  374.54  383.15  383.31  383.74
  383.85  387.89  387.94  394.09  394.27  397.94  398.24  433.28  433.30
  437.87  437.94  450.56  450.64  457.53  457.56  490.74  490.84  492.17
  492.22 1146.65 1146.65 1146.77 1146.77 1180.99 1181.00 1181.07 1181.08
 1182.71 1182.72 1182.88 1182.89 1230.48 1230.48 1230.50 1230.50 1230.58
 1230.58 1230.64 1230.64 1233.78 1233.78 1234.07 1234.07 1242.64 1242.64
 1242.66 1242.67 1242.82 1242.82 1242.84 1242.85


--------------------------------------------------------------------------------
  K point   1370 =   0.484375  0.484375  0.296875  Weight =    0.001
--------------------------------------------------------------------------------

  Frequencies (cm-1) [NB: Negative implies an imaginary mode]:

   34.57   34.76   41.01   41.13   52.76   53.25   55.17   55.69   68.38
   68.49   74.52   74.63   97.05   97.22   97.97   98.19  105.54  105.67
  108.00  108.15  118.26  118.54  120.83  121.20  132.00  132.29  133.19
  133.55  140.97  141.13  145.66  145.82  173.70  173.83  177.94  178.15
  185.93  186.06  191.96  192.00  200.78  200.96  204.11  204.23  214.55
  214.65  218.05  218.18  251.25  251.88  253.04  253.80  271.10  271.35
  273.13  273.39  283.31  283.54  285.68  285.92  307.01  307.12  308.09
  308.28  313.96  314.17  316.55  316.70  336.88  336.96  342.47  342.55
  363.46  363.61  366.68  366.89  375.27  375.33  382.03  382.07  384.55
  384.59  387.86  387.92  393.87  394.08  397.52  397.84  433.25  433.28
  437.28  437.35  450.64  450.71  456.55  456.58  491.19  491.29  492.36
  492.42 1146.66 1146.66 1146.76 1146.76 1181.05 1181.06 1181.13 1181.14
 1182.66 1182.67 1182.82 1182.83 1230.48 1230.48 1230.50 1230.51 1230.59
 1230.59 1230.64 1230.64 1233.79 1233.79 1234.05 1234.05 1242.65 1242.65
 1242.67 1242.68 1242.81 1242.81 1242.83 1242.84


--------------------------------------------------------------------------------
  K point   1371 =   0.484375  0.484375  0.328125  Weight =    0.001
--------------------------------------------------------------------------------

  Frequencies (cm-1) [NB: Negative implies an imaginary mode]:

   35.22   35.43   40.96   41.07   53.00   53.48   55.45   55.98   67.68
   67.77   73.20   73.32   97.99   98.15   98.74   98.95  106.10  106.29
  108.59  108.80  117.84  118.31  119.66  120.20  132.25  132.50  133.52
  133.85  140.27  140.44  144.34  144.52  174.56  174.72  178.46  178.68
  185.48  185.62  190.75  190.78  200.87  201.06  204.34  204.46  215.32
  215.42  218.29  218.43  250.57  251.18  252.10  252.86  271.88  272.21
  273.37  273.70  283.22  283.53  284.78  285.10  307.87  308.06  308.57
  308.85  313.61  313.83  316.11  316.27  336.84  336.93  341.85  341.94
  364.40  364.54  368.22  368.41  375.96  376.01  380.57  380.61  385.43
  385.48  388.08  388.14  393.62  393.86  396.99  397.34  433.24  433.29
  436.67  436.75  450.73  450.79  455.64  455.66  491.59  491.70  492.54
  492.59 1146.66 1146.66 1146.76 1146.76 1181.11 1181.12 1181.19 1181.19
 1182.61 1182.62 1182.76 1182.76 1230.48 1230.48 1230.50 1230.51 1230.59
 1230.59 1230.64 1230.64 1233.80 1233.80 1234.02 1234.03 1242.66 1242.66
 1242.68 1242.69 1242.80 1242.80 1242.82 1242.82


--------------------------------------------------------------------------------
  K point   1372 =   0.484375  0.484375  0.359375  Weight =    0.001
--------------------------------------------------------------------------------

  Frequencies (cm-1) [NB: Negative implies an imaginary mode]:

   35.96   36.19   40.98   41.09   53.33   53.79   55.78   56.30   66.99
   67.06   71.81   71.95   98.76   98.91   99.38   99.57  106.84  107.11
  109.28  109.56  117.13  117.84  118.45  119.23  132.53  132.75  133.82
  134.12  139.71  139.89  143.04  143.24  175.62  175.81  179.07  179.31
  184.98  185.14  189.40  189.44  201.08  201.27  204.40  204.51  216.11
  216.20  218.55  218.69  249.91  250.45  251.16  251.88  272.64  273.04
  273.75  274.15  282.98  283.44  283.89  284.35  308.57  308.78  309.27
  309.58  313.38  313.62  315.54  315.73  336.90  336.99  341.18  341.27
  365.42  365.54  369.68  369.86  376.41  376.48  379.03  379.10  386.38
  386.42  388.45  388.51  393.32  393.61  396.36  396.73  433.26  433.31
  436.08  436.16  450.85  450.91  454.81  454.82  491.95  492.05  492.69
  492.74 1146.67 1146.67 1146.75 1146.75 1181.17 1181.18 1181.24 1181.25
 1182.57 1182.57 1182.70 1182.70 1230.48 1230.48 1230.50 1230.50 1230.60
 1230.60 1230.64 1230.64 1233.81 1233.82 1234.00 1234.00 1242.67 1242.67
 1242.69 1242.70 1242.79 1242.79 1242.81 1242.81


--------------------------------------------------------------------------------
  K point   1373 =   0.484375  0.484375  0.390625  Weight =    0.001
--------------------------------------------------------------------------------

  Frequencies (cm-1) [NB: Negative implies an imaginary mode]:

   36.80   37.03   40.98   41.11   53.75   54.18   56.08   56.58   66.36
   66.45   70.40   70.57   99.38   99.51   99.89  100.03  107.73  108.09
  110.06  110.43  116.19  117.13  117.24  118.26  132.85  133.04  134.06
  134.34  139.30  139.50  141.85  142.07  176.83  177.06  179.75  180.01
  184.42  184.61  187.94  188.03  201.37  201.56  204.29  204.40  216.88
  216.96  218.79  218.93  249.32  249.76  250.29  250.94  273.30  273.70
  274.30  274.71  282.57  283.09  283.24  283.76  309.16  309.36  310.09
  310.38  313.19  313.45  314.86  315.11  337.05  337.15  340.51  340.60
  366.51  366.62  371.02  371.19  376.45  376.70  377.48  377.78  387.37
  387.41  388.93  389.00  392.98  393.32  395.63  396.04  433.31  433.38
  435.52  435.61  451.01  451.05  454.06  454.06  492.25  492.34  492.81
  492.85 1146.68 1146.68 1146.74 1146.74 1181.23 1181.23 1181.29 1181.30
 1182.53 1182.53 1182.64 1182.64 1230.49 1230.49 1230.50 1230.50 1230.60
 1230.60 1230.64 1230.64 1233.83 1233.83 1233.98 1233.98 1242.69 1242.69
 1242.71 1242.71 1242.78 1242.78 1242.80 1242.80


--------------------------------------------------------------------------------
  K point   1374 =   0.484375  0.484375  0.421875  Weight =    0.001
--------------------------------------------------------------------------------

  Frequencies (cm-1) [NB: Negative implies an imaginary mode]:

   37.67   37.90   40.88   41.03   54.26   54.66   56.28   56.74   65.92
   66.02   69.07   69.25   99.85   99.95  100.26  100.35  108.75  109.19
  110.92  111.39  115.12  115.93  116.36  117.24  133.19  133.35  134.21
  134.46  139.04  139.26  140.82  141.06  178.14  178.42  180.46  180.77
  183.80  184.03  186.42  186.58  201.75  201.92  204.04  204.15  217.58
  217.65  218.98  219.11  248.87  249.18  249.55  250.08  273.90  274.24
  274.86  275.22  282.14  282.48  282.94  283.27  309.77  309.99  310.80
  311.13  313.00  313.29  314.13  314.44  337.29  337.39  339.85  339.95
  367.66  367.77  372.11  372.24  375.74  376.06  376.70  377.09  388.34
  388.40  389.49  389.56  392.61  393.03  394.81  395.25  433.42  433.49
  435.01  435.10  451.21  451.25  453.40  453.40  492.50  492.58  492.89
  492.93 1146.69 1146.69 1146.73 1146.73 1181.28 1181.28 1181.33 1181.33
 1182.50 1182.50 1182.58 1182.59 1230.49 1230.49 1230.50 1230.50 1230.61
 1230.61 1230.64 1230.64 1233.85 1233.85 1233.96 1233.96 1242.70 1242.70
 1242.72 1242.72 1242.77 1242.77 1242.78 1242.79


--------------------------------------------------------------------------------
  K point   1375 =   0.484375  0.484375  0.453125  Weight =    0.001
--------------------------------------------------------------------------------

  Frequencies (cm-1) [NB: Negative implies an imaginary mode]:

   38.51   38.72   40.64   40.81   54.84   55.21   56.27   56.69   65.76
   65.90   67.89   68.07  100.19  100.25  100.47  100.51  109.84  110.35
  111.77  112.34  114.09  114.75  115.43  116.19  133.53  133.68  134.24
  134.45  138.94  139.19  140.02  140.27  179.47  179.85  181.15  181.56
  183.12  183.40  184.91  185.16  202.16  202.32  203.69  203.81  218.17
  218.23  219.06  219.17  248.61  248.77  249.00  249.38  274.44  274.74
  275.19  275.50  281.89  282.14  282.58  282.82  310.39  310.67  311.32
  311.77  312.79  313.06  313.43  313.80  337.60  337.70  339.25  339.35
  368.85  368.96  372.58  372.64  375.07  375.19  376.45  376.70  389.22
  389.29  390.03  390.08  392.29  392.84  393.94  394.43  433.57  433.64
  434.58  434.67  451.46  451.49  452.84  452.84  492.69  492.75  492.93
  492.96 1146.70 1146.70 1146.73 1146.73 1181.32 1181.32 1181.35 1181.36
 1182.48 1182.48 1182.54 1182.54 1230.49 1230.49 1230.50 1230.50 1230.61
 1230.61 1230.63 1230.63 1233.87 1233.87 1233.94 1233.94 1242.71 1242.72
 1242.73 1242.73 1242.76 1242.76 1242.77 1242.78


--------------------------------------------------------------------------------
  K point   1376 =   0.484375  0.484375  0.484375  Weight =    0.000
--------------------------------------------------------------------------------

  Frequencies (cm-1) [NB: Negative implies an imaginary mode]:

   39.20   39.33   40.34   40.45   55.40   55.65   56.14   56.41   65.93
   66.03   67.07   67.19  100.40  100.43  100.55  100.56  110.90  111.33
  112.20  112.71  113.66  114.10  114.62  115.15  133.82  133.93  134.19
  134.32  139.03  139.21  139.55  139.73  180.69  181.13  181.66  182.21
  182.60  182.79  183.62  183.91  202.56  202.66  203.37  203.45  218.58
  218.62  219.04  219.10  248.57  248.60  248.70  248.89  274.89  275.11
  275.27  275.49  281.91  282.06  282.29  282.44  310.98  311.28  311.52
  311.99  312.72  312.83  313.01  313.24  337.94  338.00  338.80  338.87
  369.91  369.98  372.07  372.13  375.19  375.29  376.13  376.26  389.89
  389.92  390.27  390.32  392.35  392.83  393.22  393.64  433.75  433.80
  434.28  434.33  451.71  451.73  452.43  452.44  492.82  492.85  492.93
  492.96 1146.71 1146.71 1146.72 1146.72 1181.34 1181.35 1181.36 1181.36
 1182.48 1182.48 1182.51 1182.51 1230.49 1230.49 1230.50 1230.50 1230.62
 1230.62 1230.63 1230.63 1233.88 1233.88 1233.92 1233.92 1242.72 1242.73
 1242.73 1242.74 1242.76 1242.76 1242.76 1242.76


--------------------------------------------------------------------------------
  Phonon properties (per mole of unit cells): Temperature =    150.000 K
--------------------------------------------------------------------------------
  Zero point energy            =        3.945449 eV
  Entropy                      =        0.004886 eV/K
                               =      471.390320 J/(mol.K)
  Helmholtz free-energy        =    -2435.827777 eV
                               =  -235020.124898 kJmol-1
  Free energy (equipartition)  =    -2437.575817 eV
  - T*S       (equipartition)  =        0.171074 eV
  Uvib        (equipartition)  =        1.706233 eV
  Mean kinetic energy          =        2.179097 eV
  Heat capacity - const volume =        0.005448 eV/K
                               =      525.621536 J/(mol.K)
--------------------------------------------------------------------------------

  Time to end of properties =      34.3021 seconds


  Peak dynamic memory used =       6.29 MB 


  Timing analysis for GULP :

--------------------------------------------------------------------------------
  Task / Subroutine                                          Time (Seconds)
--------------------------------------------------------------------------------
  Calculation of reciprocal space energy and derivatives         12.0432
  Calculation of real space energy and derivatives                4.3584
  Calculation of phonons                                         32.2025
  Calculation of matrix inversion                                 3.7084
  Disk read/write operations to scratch files                     0.0001
  Symmetry generation of equivalent positions                     0.0025
  Global summation overhead                                       1.1615
--------------------------------------------------------------------------------
  Total CPU time                                                 34.3022
--------------------------------------------------------------------------------


  Dump file written as dump_free_T150_i6.txt


  Job Finished at 16:43.42 19th May        2020                               

