********************************************************************************
*                       GENERAL UTILITY LATTICE PROGRAM                        *
*                                 Julian Gale                                  *
*                       Curtin Institute for Computation                       *
*                    School of Molecular and Life Sciences                     *
*                    Curtin University, Western Australia                      *
********************************************************************************
* Version = 5.2.0 * Last modified =  17th December 2019                        *
********************************************************************************
*  optimise     - perform optimisation run                                     *
*  conv         - constant volume calculation                                  *
*  isotropic    - only isotropic cell expansion to be allowed                  *
*  lbfgs        - use limited memory BFGS update                               *
********************************************************************************
* ASE calculation                                                              *
********************************************************************************


  Job Started  at 13:01.01 31st July       2020                               

  Number of CPUs =     1


  Total number of configurations input =      1

********************************************************************************
*  Input for Configuration =   1                                               *
********************************************************************************

  Formula = C64                                                         

  Number of irreducible atoms/shells =      64


  Total number atoms/shells =      64

  Dimensionality = 3               :  Bulk   



  Cartesian lattice vectors (Angstroms) :

        7.593060    0.000000    0.000000
        0.000000    7.593060    0.000000
        0.000000    0.000000    7.593060

  Cell parameters (Angstroms/Degrees):

  a =       7.5931    alpha =  90.0000
  b =       7.5931    beta  =  90.0000
  c =       7.5931    gamma =  90.0000

  Initial cell volume =         437.774535 Angs**3

  Temperature of configuration =   0.00     K 

  Pressure of configuration =         0.000 GPa 

  Fractional coordinates of asymmetric unit :

--------------------------------------------------------------------------------
   No.  Atomic       x           y          z         Charge      Occupancy
        Label      (Frac)      (Frac)     (Frac)        (e)         (Frac)  
--------------------------------------------------------------------------------
      1 C     c    0.476040    0.519880    0.065020     0.00000    1.000000    
      2 C     c    0.408230 *  0.739570 *  0.304320 *   0.00000    1.000000    
      3 C     c    0.283500 *  0.257800 *  0.903540 *   0.00000    1.000000    
      4 C     c    0.121740 *  0.015000 *  0.619820 *   0.00000    1.000000    
      5 C     c    0.961630 *  0.858120 *  0.881770 *   0.00000    1.000000    
      6 C     c    0.791230 *  0.484810 *  0.577650 *   0.00000    1.000000    
      7 C     c    0.611650 *  0.418220 *  0.674250 *   0.00000    1.000000    
      8 C     c    0.791740 *  0.717880 *  0.328190 *   0.00000    1.000000    
      9 C     c    0.885060 *  0.252990 *  0.323860 *   0.00000    1.000000    
     10 C     c    0.677960 *  0.164610 *  0.130500 *   0.00000    1.000000    
     11 C     c    0.876740 *  0.039070 *  0.362680 *   0.00000    1.000000    
     12 C     c    0.961970 *  0.955970 *  0.523330 *   0.00000    1.000000    
     13 C     c    0.510700 *  0.062220 *  0.141510 *   0.00000    1.000000    
     14 C     c    0.554090 *  0.985780 *  0.487090 *   0.00000    1.000000    
     15 C     c    0.461770 *  0.326030 *  0.993000 *   0.00000    1.000000    
     16 C     c    0.946890 *  0.357160 *  0.482980 *   0.00000    1.000000    
     17 C     c    0.154070 *  0.421170 *  0.828520 *   0.00000    1.000000    
     18 C     c    0.831770 *  0.738730 *  0.814560 *   0.00000    1.000000    
     19 C     c    0.920120 *  0.954310 *  0.037080 *   0.00000    1.000000    
     20 C     c    0.147610 *  0.916410 *  0.794660 *   0.00000    1.000000    
     21 C     c    0.868360 *  0.656000 *  0.654380 *   0.00000    1.000000    
     22 C     c    0.879940 *  0.132590 *  0.720880 *   0.00000    1.000000    
     23 C     c    0.499460 *  0.600100 *  0.409770 *   0.00000    1.000000    
     24 C     c    0.653150 *  0.710260 *  0.882190 *   0.00000    1.000000    
     25 C     c    0.638740 *  0.591320 *  0.028020 *   0.00000    1.000000    
     26 C     c    0.781760 *  0.980410 *  0.706670 *   0.00000    1.000000    
     27 C     c    0.472510 *  0.453970 *  0.572730 *   0.00000    1.000000    
     28 C     c    0.358710 *  0.639340 *  0.140240 *   0.00000    1.000000    
     29 C     c    0.589570 *  0.956860 *  0.680290 *   0.00000    1.000000    
     30 C     c    0.718040 *  0.337390 *  0.232610 *   0.00000    1.000000    
     31 C     c    0.001140 *  0.187050 *  0.148080 *   0.00000    1.000000    
     32 C     c    0.965430 *  0.404090 *  0.890210 *   0.00000    1.000000    
     33 C     c    0.506120 *  0.789580 *  0.785060 *   0.00000    1.000000    
     34 C     c    0.837780 *  0.141480 *  0.024540 *   0.00000    1.000000    
     35 C     c    0.349610 *  0.176980 *  0.704320 *   0.00000    1.000000    
     36 C     c    0.114160 *  0.481020 *  0.449370 *   0.00000    1.000000    
     37 C     c    0.177470 *  0.156740 *  0.076340 *   0.00000    1.000000    
     38 C     c    0.281670 *  0.397800 *  0.512320 *   0.00000    1.000000    
     39 C     c    0.098910 *  0.680840 *  0.419430 *   0.00000    1.000000    
     40 C     c    0.930150 *  0.506570 *  0.035090 *   0.00000    1.000000    
     41 C     c    0.825710 *  0.254140 *  0.863560 *   0.00000    1.000000    
     42 C     c    0.362940 *  0.214000 *  0.165770 *   0.00000    1.000000    
     43 C     c    0.399470 *  0.120970 *  0.502590 *   0.00000    1.000000    
     44 C     c    0.983380 *  0.715560 *  0.265900 *   0.00000    1.000000    
     45 C     c    0.394910 *  0.281560 *  0.358750 *   0.00000    1.000000    
     46 C     c    0.560620 *  0.397310 *  0.336180 *   0.00000    1.000000    
     47 C     c    0.315270 *  0.767480 *  0.789300 *   0.00000    1.000000    
     48 C     c    0.937820 *  0.909940 *  0.211780 *   0.00000    1.000000    
     49 C     c    0.766280 *  0.492620 *  0.107940 *   0.00000    1.000000    
     50 C     c    0.254780 *  0.806800 *  0.411390 *   0.00000    1.000000    
     51 C     c    0.703920 *  0.556230 *  0.406270 *   0.00000    1.000000    
     52 C     c    0.957750 *  0.762410 *  0.534000 *   0.00000    1.000000    
     53 C     c    0.232480 *  0.605790 *  0.869400 *   0.00000    1.000000    
     54 C     c    0.043270 *  0.616500 *  0.115680 *   0.00000    1.000000    
     55 C     c    0.619960 *  0.289910 *  0.840110 *   0.00000    1.000000    
     56 C     c    0.437720 *  0.008810 *  0.964830 *   0.00000    1.000000    
     57 C     c    0.520090 *  0.915040 *  0.281560 *   0.00000    1.000000    
     58 C     c    0.206950 *  0.638760 *  0.050740 *   0.00000    1.000000    
     59 C     c    0.024090 *  0.212260 *  0.608440 *   0.00000    1.000000    
     60 C     c    0.263200 *  0.965980 *  0.492200 *   0.00000    1.000000    
     61 C     c    0.714850 *  0.905160 *  0.357290 *   0.00000    1.000000    
     62 C     c    0.247900 *  0.994030 *  0.956370 *   0.00000    1.000000    
     63 C     c    0.509550 *  0.102510 *  0.802490 *   0.00000    1.000000    
     64 C     c    0.189960 *  0.302950 *  0.668360 *   0.00000    1.000000    
--------------------------------------------------------------------------------


  Constraints : 

--------------------------------------------------------------------------------
  Constraint no.      Unconstrained     Constrained    Coefficient    Offset
                         Variable         Variable
--------------------------------------------------------------------------------
           1              Strain 1        Strain 2       1.00000      0.0000
           2              Strain 1        Strain 3       1.00000      0.0000
--------------------------------------------------------------------------------


********************************************************************************
*  General input information                                                   *
********************************************************************************

  Species output for all configurations : 

--------------------------------------------------------------------------------
  Species    Type    Atomic    Atomic    Charge       Radii (Angs)     Library
                     Number     Mass       (e)     Cova   Ionic  VDW   Symbol
--------------------------------------------------------------------------------
    C        Core        6      12.01   0.000000   0.770  0.000  1.530          
--------------------------------------------------------------------------------


  Lattice summation method               =    Ewald          (3-D)
                                         =    Parry          (2-D)
                                         =    Saunders et al (1-D)
  Accuracy factor for lattice sums       =   12.000


  Analytic derivatives to be used

  Time limit = Infinity

  Maximum range for interatomic potentials =    100000.000000 Angstroms

  Brenner et al 2002 potential to be used with explicit splines for P


********************************************************************************
*  Output for configuration   1                                                *
********************************************************************************


  Components of energy : 

--------------------------------------------------------------------------------
  Interatomic potentials     =           0.00000000 eV    
  Brenner potentials         =        -420.70174398 eV    
  Monopole - monopole (real) =           0.00000000 eV    
  Monopole - monopole (recip)=           0.00000000 eV    
  Monopole - monopole (total)=           0.00000000 eV    
--------------------------------------------------------------------------------
  Total lattice energy       =        -420.70174398 eV    
--------------------------------------------------------------------------------
  Total lattice energy       =          -40591.2873 kJ/(mole unit cells)
--------------------------------------------------------------------------------


  Number of variables =      189

  Maximum number of calculations  =          2000
  Maximum Hessian update interval =            10
  Maximum step size               =   1.000000000
  Maximum parameter tolerance     =   0.000010000
  Maximum function  tolerance     =   0.000010000
  Maximum gradient  tolerance     =   0.001000000
  Maximum gradient  component     =   0.010000000

  Maximum LM gradient tolerance   =   0.900000000
  Symmetry not applied to optimisation

  Limited Memory BFGS to be used of order   10

  BFGS hessian update to be used

  Lower half triangular hessian to be used

  Start of bulk optimisation :

  Cycle:      0 Energy:      -420.701744  Gnorm:      0.611452  CPU:    0.068
  Cycle:      1 Energy:      -420.798299  Gnorm:      0.544776  CPU:    0.131
  Cycle:      2 Energy:      -421.354077  Gnorm:      0.272953  CPU:    0.148
  Cycle:      3 Energy:      -421.503425  Gnorm:      0.213191  CPU:    0.166
  Cycle:      4 Energy:      -421.642416  Gnorm:      0.209497  CPU:    0.184
  Cycle:      5 Energy:      -421.688644  Gnorm:      0.193526  CPU:    0.201
  Cycle:      6 Energy:      -421.724634  Gnorm:      0.097033  CPU:    0.219
  Cycle:      7 Energy:      -421.759742  Gnorm:      0.076070  CPU:    0.236
  Cycle:      8 Energy:      -421.785444  Gnorm:      0.143579  CPU:    0.255
  Cycle:      9 Energy:      -421.817789  Gnorm:      0.081901  CPU:    0.273
  Cycle:     10 Energy:      -421.846956  Gnorm:      0.076628  CPU:    0.291
  Cycle:     11 Energy:      -421.869084  Gnorm:      0.073374  CPU:    0.308
  Cycle:     12 Energy:      -421.886008  Gnorm:      0.058000  CPU:    0.326
  Cycle:     13 Energy:      -421.899794  Gnorm:      0.068978  CPU:    0.353
  Cycle:     14 Energy:      -421.910173  Gnorm:      0.043286  CPU:    0.371
  Cycle:     15 Energy:      -421.916023  Gnorm:      0.034871  CPU:    0.390
  Cycle:     16 Energy:      -421.924305  Gnorm:      0.044084  CPU:    0.408
  Cycle:     17 Energy:      -421.930212  Gnorm:      0.043740  CPU:    0.426
  Cycle:     18 Energy:      -421.935117  Gnorm:      0.031934  CPU:    0.445
  Cycle:     19 Energy:      -421.940134  Gnorm:      0.029223  CPU:    0.462
  Cycle:     20 Energy:      -421.943168  Gnorm:      0.022789  CPU:    0.481
  Cycle:     21 Energy:      -421.946954  Gnorm:      0.030344  CPU:    0.499
  Cycle:     22 Energy:      -421.949541  Gnorm:      0.023963  CPU:    0.517
  Cycle:     23 Energy:      -421.951219  Gnorm:      0.018984  CPU:    0.536
  Cycle:     24 Energy:      -421.953115  Gnorm:      0.039227  CPU:    0.554
  Cycle:     25 Energy:      -421.955004  Gnorm:      0.021889  CPU:    0.572
  Cycle:     26 Energy:      -421.955998  Gnorm:      0.017709  CPU:    0.590
  Cycle:     27 Energy:      -421.958196  Gnorm:      0.016928  CPU:    0.609
  Cycle:     28 Energy:      -421.959168  Gnorm:      0.026090  CPU:    0.636
  Cycle:     29 Energy:      -421.960305  Gnorm:      0.019232  CPU:    0.665
  Cycle:     30 Energy:      -421.962021  Gnorm:      0.015546  CPU:    0.684
  Cycle:     31 Energy:      -421.963193  Gnorm:      0.023911  CPU:    0.702
  Cycle:     32 Energy:      -421.964286  Gnorm:      0.027308  CPU:    0.720
  Cycle:     33 Energy:      -421.965939  Gnorm:      0.019062  CPU:    0.738
  Cycle:     34 Energy:      -421.966890  Gnorm:      0.018818  CPU:    0.757
  Cycle:     35 Energy:      -421.967997  Gnorm:      0.014450  CPU:    0.775
  Cycle:     36 Energy:      -421.969610  Gnorm:      0.015636  CPU:    0.793
  Cycle:     37 Energy:      -421.970314  Gnorm:      0.031946  CPU:    0.812
  Cycle:     38 Energy:      -421.971460  Gnorm:      0.012678  CPU:    0.830
  Cycle:     39 Energy:      -421.971984  Gnorm:      0.010003  CPU:    0.849
  Cycle:     40 Energy:      -421.972595  Gnorm:      0.011685  CPU:    0.868
  Cycle:     41 Energy:      -421.973182  Gnorm:      0.020898  CPU:    0.886
  Cycle:     42 Energy:      -421.973738  Gnorm:      0.008909  CPU:    0.905
  Cycle:     43 Energy:      -421.974000  Gnorm:      0.007058  CPU:    0.923
  Cycle:     44 Energy:      -421.974319  Gnorm:      0.009584  CPU:    0.941
  Cycle:     45 Energy:      -421.974579  Gnorm:      0.013071  CPU:    0.960
  Cycle:     46 Energy:      -421.974839  Gnorm:      0.007315  CPU:    0.978
  Cycle:     47 Energy:      -421.975084  Gnorm:      0.006475  CPU:    0.997
  Cycle:     48 Energy:      -421.975255  Gnorm:      0.006855  CPU:    1.015
  Cycle:     49 Energy:      -421.975482  Gnorm:      0.014706  CPU:    1.034
  Cycle:     50 Energy:      -421.975742  Gnorm:      0.007424  CPU:    1.052
  Cycle:     51 Energy:      -421.975859  Gnorm:      0.005728  CPU:    1.070
  Cycle:     52 Energy:      -421.976087  Gnorm:      0.005466  CPU:    1.089
  Cycle:     53 Energy:      -421.976224  Gnorm:      0.013033  CPU:    1.107
  Cycle:     54 Energy:      -421.976407  Gnorm:      0.006410  CPU:    1.126
  Cycle:     55 Energy:      -421.976543  Gnorm:      0.005137  CPU:    1.145
  Cycle:     56 Energy:      -421.976683  Gnorm:      0.005573  CPU:    1.164
  Cycle:     57 Energy:      -421.976915  Gnorm:      0.005555  CPU:    1.182
  Cycle:     58 Energy:      -421.976945  Gnorm:      0.014352  CPU:    1.201
  Cycle:     59 Energy:      -421.977198  Gnorm:      0.004227  CPU:    1.220
  Cycle:     60 Energy:      -421.977272  Gnorm:      0.003201  CPU:    1.238
  Cycle:     61 Energy:      -421.977406  Gnorm:      0.005398  CPU:    1.268
  Cycle:     62 Energy:      -421.977472  Gnorm:      0.011570  CPU:    1.286
  Cycle:     63 Energy:      -421.977609  Gnorm:      0.004949  CPU:    1.304
  Cycle:     64 Energy:      -421.977707  Gnorm:      0.004140  CPU:    1.323
  Cycle:     65 Energy:      -421.977816  Gnorm:      0.005012  CPU:    1.341
  Cycle:     66 Energy:      -421.977953  Gnorm:      0.012030  CPU:    1.360
  Cycle:     67 Energy:      -421.978145  Gnorm:      0.005517  CPU:    1.378
  Cycle:     68 Energy:      -421.978285  Gnorm:      0.004484  CPU:    1.397
  Cycle:     69 Energy:      -421.978441  Gnorm:      0.006361  CPU:    1.416
  Cycle:     70 Energy:      -421.978530  Gnorm:      0.011637  CPU:    1.434
  Cycle:     71 Energy:      -421.978692  Gnorm:      0.005136  CPU:    1.453
  Cycle:     72 Energy:      -421.978822  Gnorm:      0.004940  CPU:    1.471
  Cycle:     73 Energy:      -421.978942  Gnorm:      0.005723  CPU:    1.489
  Cycle:     74 Energy:      -421.979176  Gnorm:      0.005717  CPU:    1.508
  Cycle:     75 Energy:      -421.979206  Gnorm:      0.005485  CPU:    1.536
  Cycle:     76 Energy:      -421.979248  Gnorm:      0.005071  CPU:    1.563
  Cycle:     77 Energy:      -421.979266  Gnorm:      0.005510  CPU:    1.591
  Cycle:     78 Energy:      -421.979369  Gnorm:      0.005364  CPU:    1.610
  Cycle:     79 Energy:      -421.979429  Gnorm:      0.005195  CPU:    1.629
  Cycle:     80 Energy:      -421.979460  Gnorm:      0.002204  CPU:    1.647
  Cycle:     81 Energy:      -421.979473  Gnorm:      0.001444  CPU:    1.666
  Cycle:     82 Energy:      -421.979500  Gnorm:      0.001758  CPU:    1.685
  Cycle:     83 Energy:      -421.979511  Gnorm:      0.003360  CPU:    1.713
  Cycle:     84 Energy:      -421.979529  Gnorm:      0.001842  CPU:    1.732
  Cycle:     85 Energy:      -421.979541  Gnorm:      0.001152  CPU:    1.750
  Cycle:     86 Energy:      -421.979549  Gnorm:      0.001571  CPU:    1.769
  Cycle:     87 Energy:      -421.979557  Gnorm:      0.001640  CPU:    1.788
  Cycle:     88 Energy:      -421.979568  Gnorm:      0.001378  CPU:    1.806
  Cycle:     89 Energy:      -421.979578  Gnorm:      0.001963  CPU:    1.825
  Cycle:     90 Energy:      -421.979588  Gnorm:      0.001614  CPU:    1.851
  Cycle:     91 Energy:      -421.979597  Gnorm:      0.001604  CPU:    1.874
  Cycle:     92 Energy:      -421.979614  Gnorm:      0.002929  CPU:    1.893
  Cycle:     93 Energy:      -421.979624  Gnorm:      0.003056  CPU:    1.912
  Cycle:     94 Energy:      -421.979634  Gnorm:      0.001405  CPU:    1.930
  Cycle:     95 Energy:      -421.979643  Gnorm:      0.001280  CPU:    1.949
  Cycle:     96 Energy:      -421.979654  Gnorm:      0.001575  CPU:    1.967
  Cycle:     97 Energy:      -421.979672  Gnorm:      0.001774  CPU:    1.986
  Cycle:     98 Energy:      -421.979678  Gnorm:      0.002454  CPU:    2.014
  Cycle:     99 Energy:      -421.979689  Gnorm:      0.001369  CPU:    2.033
  Cycle:    100 Energy:      -421.979699  Gnorm:      0.001184  CPU:    2.052
  Cycle:    101 Energy:      -421.979712  Gnorm:      0.001873  CPU:    2.070
  Cycle:    102 Energy:      -421.979722  Gnorm:      0.003117  CPU:    2.089
  Cycle:    103 Energy:      -421.979734  Gnorm:      0.001675  CPU:    2.108
  Cycle:    104 Energy:      -421.979745  Gnorm:      0.001257  CPU:    2.127
  Cycle:    105 Energy:      -421.979752  Gnorm:      0.001427  CPU:    2.149
  Cycle:    106 Energy:      -421.979757  Gnorm:      0.002538  CPU:    2.176
  Cycle:    107 Energy:      -421.979765  Gnorm:      0.001106  CPU:    2.195
  Cycle:    108 Energy:      -421.979769  Gnorm:      0.001014  CPU:    2.214
  Cycle:    109 Energy:      -421.979774  Gnorm:      0.001223  CPU:    2.234
  Cycle:    110 Energy:      -421.979778  Gnorm:      0.001750  CPU:    2.253
  Cycle:    111 Energy:      -421.979783  Gnorm:      0.000882  CPU:    2.272
  Cycle:    112 Energy:      -421.979786  Gnorm:      0.000778  CPU:    2.290
  Cycle:    113 Energy:      -421.979790  Gnorm:      0.000806  CPU:    2.309
  Cycle:    114 Energy:      -421.979793  Gnorm:      0.002215  CPU:    2.328
  Cycle:    115 Energy:      -421.979797  Gnorm:      0.000841  CPU:    2.347
  Cycle:    116 Energy:      -421.979799  Gnorm:      0.000526  CPU:    2.365
  Cycle:    117 Energy:      -421.979800  Gnorm:      0.000562  CPU:    2.384
  Cycle:    118 Energy:      -421.979803  Gnorm:      0.000630  CPU:    2.403
  Cycle:    119 Energy:      -421.979804  Gnorm:      0.001444  CPU:    2.421
  Cycle:    120 Energy:      -421.979807  Gnorm:      0.000566  CPU:    2.441
  Cycle:    121 Energy:      -421.979807  Gnorm:      0.000409  CPU:    2.470
  Cycle:    122 Energy:      -421.979809  Gnorm:      0.000603  CPU:    2.489
  Cycle:    123 Energy:      -421.979810  Gnorm:      0.000776  CPU:    2.508
  Cycle:    124 Energy:      -421.979811  Gnorm:      0.000569  CPU:    2.526
  Cycle:    125 Energy:      -421.979813  Gnorm:      0.000663  CPU:    2.545
  Cycle:    126 Energy:      -421.979814  Gnorm:      0.000501  CPU:    2.564
  Cycle:    127 Energy:      -421.979814  Gnorm:      0.000496  CPU:    2.583
  Cycle:    128 Energy:      -421.979816  Gnorm:      0.000457  CPU:    2.601
  Cycle:    129 Energy:      -421.979817  Gnorm:      0.000585  CPU:    2.629
  Cycle:    130 Energy:      -421.979817  Gnorm:      0.000362  CPU:    2.648
  Cycle:    131 Energy:      -421.979818  Gnorm:      0.000322  CPU:    2.667
  Cycle:    132 Energy:      -421.979819  Gnorm:      0.000542  CPU:    2.685
  Cycle:    133 Energy:      -421.979819  Gnorm:      0.000381  CPU:    2.704
  Cycle:    134 Energy:      -421.979820  Gnorm:      0.000306  CPU:    2.723
  Cycle:    135 Energy:      -421.979820  Gnorm:      0.000339  CPU:    2.741
  Cycle:    136 Energy:      -421.979821  Gnorm:      0.000482  CPU:    2.760
  Cycle:    137 Energy:      -421.979822  Gnorm:      0.000327  CPU:    2.779
  Cycle:    138 Energy:      -421.979822  Gnorm:      0.000490  CPU:    2.798
  Cycle:    139 Energy:      -421.979822  Gnorm:      0.000295  CPU:    2.817
  Cycle:    140 Energy:      -421.979823  Gnorm:      0.000278  CPU:    2.835
  Cycle:    141 Energy:      -421.979823  Gnorm:      0.000304  CPU:    2.854
  Cycle:    142 Energy:      -421.979823  Gnorm:      0.000418  CPU:    2.882
  Cycle:    143 Energy:      -421.979823  Gnorm:      0.000266  CPU:    2.901


  **** Optimisation achieved ****


  Final energy =    -421.97982377 eV
  Final Gnorm  =       0.00021073

  Components of energy : 

--------------------------------------------------------------------------------
  Interatomic potentials     =           0.00000000 eV    
  Brenner potentials         =        -421.97982377 eV    
  Monopole - monopole (real) =           0.00000000 eV    
  Monopole - monopole (recip)=           0.00000000 eV    
  Monopole - monopole (total)=           0.00000000 eV    
--------------------------------------------------------------------------------
  Total lattice energy       =        -421.97982377 eV    
--------------------------------------------------------------------------------
  Total lattice energy       =          -40714.6024 kJ/(mole unit cells)
--------------------------------------------------------------------------------

  Final fractional coordinates of atoms :

--------------------------------------------------------------------------------
   No.  Atomic        x           y          z          Radius
        Label       (Frac)      (Frac)     (Frac)       (Angs) 
--------------------------------------------------------------------------------
     1  C     c     0.476040    0.519880    0.065020    0.000000
     2  C     c     0.411088    0.739128    0.305515    0.000000
     3  C     c     0.290582    0.259718    0.911113    0.000000
     4  C     c     0.105174    0.009126    0.614126    0.000000
     5  C     c     0.961213    0.853063    0.880862    0.000000
     6  C     c     0.796564    0.475321    0.580185    0.000000
     7  C     c     0.614850    0.415768    0.678910    0.000000
     8  C     c     0.790519    0.713468    0.331154    0.000000
     9  C     c     0.884072    0.246555    0.325782    0.000000
    10  C     c     0.686091    0.160456    0.139750    0.000000
    11  C     c     0.872088    0.039175    0.358236    0.000000
    12  C     c     0.951442    0.932079    0.517747    0.000000
    13  C     c     0.515811    0.057940    0.148297    0.000000
    14  C     c     0.552707    0.979843    0.494844    0.000000
    15  C     c     0.469574    0.328763    0.001072    0.000000
    16  C     c     0.950612    0.350417    0.486312    0.000000
    17  C     c     0.160540    0.418021    0.829758    0.000000
    18  C     c     0.833895    0.731170    0.814571    0.000000
    19  C     c     0.915718    0.948093    0.035328    0.000000
    20  C     c     0.145153    0.914304    0.792898    0.000000
    21  C     c     0.873298    0.645534    0.655421    0.000000
    22  C     c     0.891379    0.123185    0.725807    0.000000
    23  C     c     0.501768    0.601396    0.412889    0.000000
    24  C     c     0.653258    0.703127    0.881887    0.000000
    25  C     c     0.641299    0.587236    0.027647    0.000000
    26  C     c     0.791353    0.972817    0.719229    0.000000
    27  C     c     0.470593    0.465436    0.576357    0.000000
    28  C     c     0.359612    0.641508    0.137992    0.000000
    29  C     c     0.592445    0.951457    0.689429    0.000000
    30  C     c     0.715753    0.339673    0.233980    0.000000
    31  C     c     0.007793    0.192814    0.155264    0.000000
    32  C     c     0.970838    0.395170    0.892605    0.000000
    33  C     c     0.506644    0.785477    0.781752    0.000000
    34  C     c     0.847674    0.135633    0.031554    0.000000
    35  C     c     0.354850    0.174705    0.710580    0.000000
    36  C     c     0.114944    0.477256    0.445252    0.000000
    37  C     c     0.182893    0.160867    0.081402    0.000000
    38  C     c     0.282175    0.398603    0.516327    0.000000
    39  C     c     0.103805    0.672513    0.418882    0.000000
    40  C     c     0.934256    0.498168    0.036854    0.000000
    41  C     c     0.834283    0.245502    0.869127    0.000000
    42  C     c     0.372352    0.212335    0.168092    0.000000
    43  C     c     0.395764    0.116499    0.506279    0.000000
    44  C     c     0.982299    0.712495    0.264728    0.000000
    45  C     c     0.394727    0.276568    0.365784    0.000000
    46  C     c     0.555654    0.398777    0.337936    0.000000
    47  C     c     0.310668    0.762572    0.779355    0.000000
    48  C     c     0.932349    0.900507    0.211710    0.000000
    49  C     c     0.768406    0.485529    0.108474    0.000000
    50  C     c     0.255478    0.804172    0.413061    0.000000
    51  C     c     0.708130    0.550950    0.405574    0.000000
    52  C     c     0.957057    0.748015    0.531717    0.000000
    53  C     c     0.232338    0.604467    0.860019    0.000000
    54  C     c     0.042611    0.618423    0.110551    0.000000
    55  C     c     0.626283    0.286083    0.844659    0.000000
    56  C     c     0.439781    0.009988    0.967636    0.000000
    57  C     c     0.520987    0.912251    0.285014    0.000000
    58  C     c     0.206052    0.646493    0.042310    0.000000
    59  C     c     0.036509    0.209827    0.611532    0.000000
    60  C     c     0.257912    0.962372    0.491510    0.000000
    61  C     c     0.716213    0.894844    0.367437    0.000000
    62  C     c     0.243648    0.004284    0.953199    0.000000
    63  C     c     0.518007    0.099253    0.807564    0.000000
    64  C     c     0.200729    0.302708    0.668817    0.000000
--------------------------------------------------------------------------------

  Final internal derivatives :

--------------------------------------------------------------------------------
   No.  Atomic          a             b             c           Radius
        Label          (eV)          (eV)          (eV)        (eV/Angs)
--------------------------------------------------------------------------------
      1 C     c       0.000000      0.000000      0.000000      0.000000
      2 C     c      -0.003107     -0.006115     -0.000753      0.000000
      3 C     c       0.005573      0.003786      0.005494      0.000000
      4 C     c       0.002542     -0.000843      0.000806      0.000000
      5 C     c      -0.002008      0.000644     -0.002674      0.000000
      6 C     c       0.003044     -0.001250      0.003054      0.000000
      7 C     c      -0.003028      0.001677     -0.004378      0.000000
      8 C     c       0.005105      0.001215      0.003357      0.000000
      9 C     c       0.003075     -0.000519     -0.001117      0.000000
     10 C     c      -0.000447     -0.008689     -0.000286      0.000000
     11 C     c       0.001054      0.004212     -0.002446      0.000000
     12 C     c       0.001672      0.000343     -0.003246      0.000000
     13 C     c      -0.003032     -0.001551      0.001571      0.000000
     14 C     c      -0.001555     -0.002443      0.001772      0.000000
     15 C     c      -0.001450     -0.002288      0.001630      0.000000
     16 C     c      -0.000660     -0.001234     -0.000682      0.000000
     17 C     c      -0.003409      0.000047     -0.002631      0.000000
     18 C     c      -0.002684      0.000796      0.000613      0.000000
     19 C     c       0.000326     -0.000152     -0.001490      0.000000
     20 C     c      -0.000377      0.001501      0.001612      0.000000
     21 C     c      -0.002394      0.002553     -0.001107      0.000000
     22 C     c      -0.003220     -0.001591     -0.004100      0.000000
     23 C     c       0.002625      0.000341      0.001203      0.000000
     24 C     c      -0.003661     -0.004962     -0.000988      0.000000
     25 C     c      -0.000457     -0.001304      0.000519      0.000000
     26 C     c       0.001010     -0.006004     -0.002626      0.000000
     27 C     c      -0.001448     -0.004367      0.000847      0.000000
     28 C     c       0.001073      0.002327     -0.005806      0.000000
     29 C     c      -0.000313     -0.000839      0.002427      0.000000
     30 C     c      -0.005694      0.000822     -0.001768      0.000000
     31 C     c      -0.004890      0.007167     -0.002231      0.000000
     32 C     c      -0.000131      0.005386     -0.002446      0.000000
     33 C     c       0.001986     -0.001588     -0.006447      0.000000
     34 C     c      -0.000100     -0.002019     -0.002515      0.000000
     35 C     c      -0.000224      0.002823     -0.004198      0.000000
     36 C     c       0.000505      0.000523     -0.003655      0.000000
     37 C     c      -0.003609      0.003033     -0.000837      0.000000
     38 C     c       0.001199     -0.000956     -0.000058      0.000000
     39 C     c      -0.001254      0.001714     -0.003553      0.000000
     40 C     c      -0.000075      0.000572     -0.000396      0.000000
     41 C     c       0.002338     -0.001883     -0.002403      0.000000
     42 C     c       0.000659     -0.001024      0.004063      0.000000
     43 C     c      -0.000098     -0.001116     -0.000041      0.000000
     44 C     c       0.000015     -0.003467     -0.002879      0.000000
     45 C     c      -0.001469     -0.002365     -0.002464      0.000000
     46 C     c       0.000790     -0.005410      0.001095      0.000000
     47 C     c      -0.000510      0.001639     -0.007073      0.000000
     48 C     c      -0.005270     -0.000280      0.001989      0.000000
     49 C     c       0.000424      0.001542      0.000340      0.000000
     50 C     c      -0.004311     -0.002927      0.003868      0.000000
     51 C     c      -0.001398      0.000660     -0.000152      0.000000
     52 C     c      -0.004497     -0.002006     -0.008345      0.000000
     53 C     c       0.000429      0.000209      0.002077      0.000000
     54 C     c       0.000796     -0.003947      0.000143      0.000000
     55 C     c       0.000501     -0.005204      0.003040      0.000000
     56 C     c      -0.003729     -0.001146     -0.000798      0.000000
     57 C     c       0.001427     -0.000257      0.002996      0.000000
     58 C     c      -0.001110      0.001329      0.000356      0.000000
     59 C     c      -0.004503     -0.000468      0.000915      0.000000
     60 C     c      -0.004880      0.002494     -0.003091      0.000000
     61 C     c      -0.004142     -0.006952     -0.001633      0.000000
     62 C     c       0.002532     -0.003155     -0.005109      0.000000
     63 C     c      -0.005662      0.004520      0.001349      0.000000
     64 C     c      -0.002215     -0.002288     -0.003146      0.000000
--------------------------------------------------------------------------------
  Maximum abs         0.005694      0.008689      0.008345      0.000000
--------------------------------------------------------------------------------


  Time to end of optimisation =       2.9217 seconds


  Peak dynamic memory used =       2.01 MB 


  Timing analysis for GULP :

--------------------------------------------------------------------------------
  Task / Subroutine                                          Time (Seconds)
--------------------------------------------------------------------------------
  Calculation of Brenner energy and derivatives                   2.8323
--------------------------------------------------------------------------------
  Total CPU time                                                  2.9218
--------------------------------------------------------------------------------


  CIF file written as opti_0.9775.cif


  Job Finished at 13:01.04 31st July       2020                               

