********************************************************************************
*                       GENERAL UTILITY LATTICE PROGRAM                        *
*                                 Julian Gale                                  *
*                       Curtin Institute for Computation                       *
*                    School of Molecular and Life Sciences                     *
*                    Curtin University, Western Australia                      *
********************************************************************************
* Version = 5.2.0 * Last modified =  17th December 2019                        *
********************************************************************************
*  optimise     - perform optimisation run                                     *
*  conv         - constant volume calculation                                  *
*  isotropic    - only isotropic cell expansion to be allowed                  *
*  lbfgs        - use limited memory BFGS update                               *
********************************************************************************
* ASE calculation                                                              *
********************************************************************************


  Job Started  at 21:56.12 30th July       2020                               

  Number of CPUs =     1


  Total number of configurations input =      1

********************************************************************************
*  Input for Configuration =   1                                               *
********************************************************************************

  Formula = C64                                                         

  Number of irreducible atoms/shells =      64


  Total number atoms/shells =      64

  Dimensionality = 3               :  Bulk   



  Cartesian lattice vectors (Angstroms) :

        7.650877    0.000000    0.000000
        0.000000    7.650877    0.000000
        0.000000    0.000000    7.650877

  Cell parameters (Angstroms/Degrees):

  a =       7.6509    alpha =  90.0000
  b =       7.6509    beta  =  90.0000
  c =       7.6509    gamma =  90.0000

  Initial cell volume =         447.851115 Angs**3

  Temperature of configuration =   0.00     K 

  Pressure of configuration =         0.000 GPa 

  Fractional coordinates of asymmetric unit :

--------------------------------------------------------------------------------
   No.  Atomic       x           y          z         Charge      Occupancy
        Label      (Frac)      (Frac)     (Frac)        (e)         (Frac)  
--------------------------------------------------------------------------------
      1 C     c    0.476040    0.519880    0.065020     0.00000    1.000000    
      2 C     c    0.408230 *  0.739570 *  0.304320 *   0.00000    1.000000    
      3 C     c    0.283500 *  0.257800 *  0.903540 *   0.00000    1.000000    
      4 C     c    0.121740 *  0.015000 *  0.619820 *   0.00000    1.000000    
      5 C     c    0.961630 *  0.858120 *  0.881770 *   0.00000    1.000000    
      6 C     c    0.791230 *  0.484810 *  0.577650 *   0.00000    1.000000    
      7 C     c    0.611650 *  0.418220 *  0.674250 *   0.00000    1.000000    
      8 C     c    0.791740 *  0.717880 *  0.328190 *   0.00000    1.000000    
      9 C     c    0.885060 *  0.252990 *  0.323860 *   0.00000    1.000000    
     10 C     c    0.677960 *  0.164610 *  0.130500 *   0.00000    1.000000    
     11 C     c    0.876740 *  0.039070 *  0.362680 *   0.00000    1.000000    
     12 C     c    0.961970 *  0.955970 *  0.523330 *   0.00000    1.000000    
     13 C     c    0.510700 *  0.062220 *  0.141510 *   0.00000    1.000000    
     14 C     c    0.554090 *  0.985780 *  0.487090 *   0.00000    1.000000    
     15 C     c    0.461770 *  0.326030 *  0.993000 *   0.00000    1.000000    
     16 C     c    0.946890 *  0.357160 *  0.482980 *   0.00000    1.000000    
     17 C     c    0.154070 *  0.421170 *  0.828520 *   0.00000    1.000000    
     18 C     c    0.831770 *  0.738730 *  0.814560 *   0.00000    1.000000    
     19 C     c    0.920120 *  0.954310 *  0.037080 *   0.00000    1.000000    
     20 C     c    0.147610 *  0.916410 *  0.794660 *   0.00000    1.000000    
     21 C     c    0.868360 *  0.656000 *  0.654380 *   0.00000    1.000000    
     22 C     c    0.879940 *  0.132590 *  0.720880 *   0.00000    1.000000    
     23 C     c    0.499460 *  0.600100 *  0.409770 *   0.00000    1.000000    
     24 C     c    0.653150 *  0.710260 *  0.882190 *   0.00000    1.000000    
     25 C     c    0.638740 *  0.591320 *  0.028020 *   0.00000    1.000000    
     26 C     c    0.781760 *  0.980410 *  0.706670 *   0.00000    1.000000    
     27 C     c    0.472510 *  0.453970 *  0.572730 *   0.00000    1.000000    
     28 C     c    0.358710 *  0.639340 *  0.140240 *   0.00000    1.000000    
     29 C     c    0.589570 *  0.956860 *  0.680290 *   0.00000    1.000000    
     30 C     c    0.718040 *  0.337390 *  0.232610 *   0.00000    1.000000    
     31 C     c    0.001140 *  0.187050 *  0.148080 *   0.00000    1.000000    
     32 C     c    0.965430 *  0.404090 *  0.890210 *   0.00000    1.000000    
     33 C     c    0.506120 *  0.789580 *  0.785060 *   0.00000    1.000000    
     34 C     c    0.837780 *  0.141480 *  0.024540 *   0.00000    1.000000    
     35 C     c    0.349610 *  0.176980 *  0.704320 *   0.00000    1.000000    
     36 C     c    0.114160 *  0.481020 *  0.449370 *   0.00000    1.000000    
     37 C     c    0.177470 *  0.156740 *  0.076340 *   0.00000    1.000000    
     38 C     c    0.281670 *  0.397800 *  0.512320 *   0.00000    1.000000    
     39 C     c    0.098910 *  0.680840 *  0.419430 *   0.00000    1.000000    
     40 C     c    0.930150 *  0.506570 *  0.035090 *   0.00000    1.000000    
     41 C     c    0.825710 *  0.254140 *  0.863560 *   0.00000    1.000000    
     42 C     c    0.362940 *  0.214000 *  0.165770 *   0.00000    1.000000    
     43 C     c    0.399470 *  0.120970 *  0.502590 *   0.00000    1.000000    
     44 C     c    0.983380 *  0.715560 *  0.265900 *   0.00000    1.000000    
     45 C     c    0.394910 *  0.281560 *  0.358750 *   0.00000    1.000000    
     46 C     c    0.560620 *  0.397310 *  0.336180 *   0.00000    1.000000    
     47 C     c    0.315270 *  0.767480 *  0.789300 *   0.00000    1.000000    
     48 C     c    0.937820 *  0.909940 *  0.211780 *   0.00000    1.000000    
     49 C     c    0.766280 *  0.492620 *  0.107940 *   0.00000    1.000000    
     50 C     c    0.254780 *  0.806800 *  0.411390 *   0.00000    1.000000    
     51 C     c    0.703920 *  0.556230 *  0.406270 *   0.00000    1.000000    
     52 C     c    0.957750 *  0.762410 *  0.534000 *   0.00000    1.000000    
     53 C     c    0.232480 *  0.605790 *  0.869400 *   0.00000    1.000000    
     54 C     c    0.043270 *  0.616500 *  0.115680 *   0.00000    1.000000    
     55 C     c    0.619960 *  0.289910 *  0.840110 *   0.00000    1.000000    
     56 C     c    0.437720 *  0.008810 *  0.964830 *   0.00000    1.000000    
     57 C     c    0.520090 *  0.915040 *  0.281560 *   0.00000    1.000000    
     58 C     c    0.206950 *  0.638760 *  0.050740 *   0.00000    1.000000    
     59 C     c    0.024090 *  0.212260 *  0.608440 *   0.00000    1.000000    
     60 C     c    0.263200 *  0.965980 *  0.492200 *   0.00000    1.000000    
     61 C     c    0.714850 *  0.905160 *  0.357290 *   0.00000    1.000000    
     62 C     c    0.247900 *  0.994030 *  0.956370 *   0.00000    1.000000    
     63 C     c    0.509550 *  0.102510 *  0.802490 *   0.00000    1.000000    
     64 C     c    0.189960 *  0.302950 *  0.668360 *   0.00000    1.000000    
--------------------------------------------------------------------------------


  Constraints : 

--------------------------------------------------------------------------------
  Constraint no.      Unconstrained     Constrained    Coefficient    Offset
                         Variable         Variable
--------------------------------------------------------------------------------
           1              Strain 1        Strain 2       1.00000      0.0000
           2              Strain 1        Strain 3       1.00000      0.0000
--------------------------------------------------------------------------------


********************************************************************************
*  General input information                                                   *
********************************************************************************

  Species output for all configurations : 

--------------------------------------------------------------------------------
  Species    Type    Atomic    Atomic    Charge       Radii (Angs)     Library
                     Number     Mass       (e)     Cova   Ionic  VDW   Symbol
--------------------------------------------------------------------------------
    C        Core        6      12.01   0.000000   0.770  0.000  1.530          
--------------------------------------------------------------------------------


  Lattice summation method               =    Ewald          (3-D)
                                         =    Parry          (2-D)
                                         =    Saunders et al (1-D)
  Accuracy factor for lattice sums       =   12.000


  Analytic derivatives to be used

  Time limit = Infinity

  Maximum range for interatomic potentials =    100000.000000 Angstroms

  Brenner et al 2002 potential to be used with explicit splines for P


********************************************************************************
*  Output for configuration   1                                                *
********************************************************************************


  Components of energy : 

--------------------------------------------------------------------------------
  Interatomic potentials     =           0.00000000 eV    
  Brenner potentials         =        -420.89315518 eV    
  Monopole - monopole (real) =           0.00000000 eV    
  Monopole - monopole (recip)=           0.00000000 eV    
  Monopole - monopole (total)=           0.00000000 eV    
--------------------------------------------------------------------------------
  Total lattice energy       =        -420.89315518 eV    
--------------------------------------------------------------------------------
  Total lattice energy       =          -40609.7555 kJ/(mole unit cells)
--------------------------------------------------------------------------------


  Number of variables =      189

  Maximum number of calculations  =          2000
  Maximum Hessian update interval =            10
  Maximum step size               =   1.000000000
  Maximum parameter tolerance     =   0.000010000
  Maximum function  tolerance     =   0.000010000
  Maximum gradient  tolerance     =   0.001000000
  Maximum gradient  component     =   0.010000000

  Maximum LM gradient tolerance   =   0.900000000
  Symmetry not applied to optimisation

  Limited Memory BFGS to be used of order   10

  BFGS hessian update to be used

  Lower half triangular hessian to be used

  Start of bulk optimisation :

  Cycle:      0 Energy:      -420.893155  Gnorm:      0.477628  CPU:    0.037
  Cycle:      1 Energy:      -421.043271  Gnorm:      0.383757  CPU:    0.103
  Cycle:      2 Energy:      -421.491759  Gnorm:      0.220476  CPU:    0.112
  Cycle:      3 Energy:      -421.618547  Gnorm:      0.134392  CPU:    0.137
  Cycle:      4 Energy:      -421.709829  Gnorm:      0.112013  CPU:    0.147
  Cycle:      5 Energy:      -421.739541  Gnorm:      0.175843  CPU:    0.171
  Cycle:      6 Energy:      -421.785241  Gnorm:      0.090003  CPU:    0.182
  Cycle:      7 Energy:      -421.818547  Gnorm:      0.087885  CPU:    0.206
  Cycle:      8 Energy:      -421.843563  Gnorm:      0.084868  CPU:    0.223
  Cycle:      9 Energy:      -421.880721  Gnorm:      0.100823  CPU:    0.239
  Cycle:     10 Energy:      -421.892983  Gnorm:      0.076950  CPU:    0.270
  Cycle:     11 Energy:      -421.897083  Gnorm:      0.091473  CPU:    0.280
  Cycle:     12 Energy:      -421.910749  Gnorm:      0.046351  CPU:    0.305
  Cycle:     13 Energy:      -421.919196  Gnorm:      0.060917  CPU:    0.313
  Cycle:     14 Energy:      -421.926296  Gnorm:      0.056785  CPU:    0.340
  Cycle:     15 Energy:      -421.933393  Gnorm:      0.034652  CPU:    0.365
  Cycle:     16 Energy:      -421.939328  Gnorm:      0.030552  CPU:    0.376
  Cycle:     17 Energy:      -421.946265  Gnorm:      0.032923  CPU:    0.399
  Cycle:     18 Energy:      -421.948644  Gnorm:      0.095605  CPU:    0.427
  Cycle:     19 Energy:      -421.956931  Gnorm:      0.028631  CPU:    0.436
  Cycle:     20 Energy:      -421.959112  Gnorm:      0.021253  CPU:    0.460
  Cycle:     21 Energy:      -421.962142  Gnorm:      0.025814  CPU:    0.471
  Cycle:     22 Energy:      -421.965856  Gnorm:      0.036153  CPU:    0.496
  Cycle:     23 Energy:      -421.969532  Gnorm:      0.025503  CPU:    0.523
  Cycle:     24 Energy:      -421.972215  Gnorm:      0.025670  CPU:    0.557
  Cycle:     25 Energy:      -421.974965  Gnorm:      0.023772  CPU:    0.578
  Cycle:     26 Energy:      -421.977623  Gnorm:      0.023564  CPU:    0.594
  Cycle:     27 Energy:      -421.980458  Gnorm:      0.029785  CPU:    0.626
  Cycle:     28 Energy:      -421.982597  Gnorm:      0.020251  CPU:    0.646
  Cycle:     29 Energy:      -421.984198  Gnorm:      0.019504  CPU:    0.667
  Cycle:     30 Energy:      -421.986285  Gnorm:      0.023788  CPU:    0.694
  Cycle:     31 Energy:      -421.987589  Gnorm:      0.042493  CPU:    0.719
  Cycle:     32 Energy:      -421.989615  Gnorm:      0.017324  CPU:    0.745
  Cycle:     33 Energy:      -421.990672  Gnorm:      0.014992  CPU:    0.774
  Cycle:     34 Energy:      -421.991909  Gnorm:      0.016086  CPU:    0.799
  Cycle:     35 Energy:      -421.994273  Gnorm:      0.021326  CPU:    0.849
  Cycle:     36 Energy:      -421.994605  Gnorm:      0.040419  CPU:    0.896
  Cycle:     37 Energy:      -421.996046  Gnorm:      0.012362  CPU:    0.957
  Cycle:     38 Energy:      -421.996447  Gnorm:      0.010755  CPU:    1.012
  Cycle:     39 Energy:      -421.996934  Gnorm:      0.010525  CPU:    1.066
  Cycle:     40 Energy:      -421.997658  Gnorm:      0.012583  CPU:    1.099
  Cycle:     41 Energy:      -421.998080  Gnorm:      0.012506  CPU:    1.184
  Cycle:     42 Energy:      -421.998524  Gnorm:      0.009180  CPU:    1.246
  Cycle:     43 Energy:      -421.999004  Gnorm:      0.009985  CPU:    1.309
  Cycle:     44 Energy:      -421.999320  Gnorm:      0.009456  CPU:    1.373
  Cycle:     45 Energy:      -421.999580  Gnorm:      0.007660  CPU:    1.421
  Cycle:     46 Energy:      -421.999755  Gnorm:      0.008924  CPU:    1.511
  Cycle:     47 Energy:      -421.999914  Gnorm:      0.010996  CPU:    1.574
  Cycle:     48 Energy:      -422.000120  Gnorm:      0.005982  CPU:    1.600
  Cycle:     49 Energy:      -422.000339  Gnorm:      0.005972  CPU:    1.633
  Cycle:     50 Energy:      -422.000588  Gnorm:      0.007614  CPU:    1.674
  Cycle:     51 Energy:      -422.000721  Gnorm:      0.010484  CPU:    1.750
  Cycle:     52 Energy:      -422.000915  Gnorm:      0.005882  CPU:    1.804
  Cycle:     53 Energy:      -422.001092  Gnorm:      0.004696  CPU:    1.856
  Cycle:     54 Energy:      -422.001276  Gnorm:      0.005797  CPU:    1.909
  Cycle:     55 Energy:      -422.001423  Gnorm:      0.009875  CPU:    1.959
  Cycle:     56 Energy:      -422.001594  Gnorm:      0.005285  CPU:    2.017
  Cycle:     57 Energy:      -422.001708  Gnorm:      0.004304  CPU:    2.066
  Cycle:     58 Energy:      -422.001824  Gnorm:      0.005476  CPU:    2.114
  Cycle:     59 Energy:      -422.001946  Gnorm:      0.006903  CPU:    2.162
  Cycle:     60 Energy:      -422.002072  Gnorm:      0.005582  CPU:    2.210
  Cycle:     61 Energy:      -422.002214  Gnorm:      0.005085  CPU:    2.250
  Cycle:     62 Energy:      -422.002319  Gnorm:      0.006003  CPU:    2.270
  Cycle:     63 Energy:      -422.002465  Gnorm:      0.005270  CPU:    2.290
  Cycle:     64 Energy:      -422.002597  Gnorm:      0.008738  CPU:    2.301
  Cycle:     65 Energy:      -422.002728  Gnorm:      0.004637  CPU:    2.318
  Cycle:     66 Energy:      -422.002826  Gnorm:      0.004558  CPU:    2.343
  Cycle:     67 Energy:      -422.002949  Gnorm:      0.005769  CPU:    2.363
  Cycle:     68 Energy:      -422.003064  Gnorm:      0.010327  CPU:    2.391
  Cycle:     69 Energy:      -422.003208  Gnorm:      0.005168  CPU:    2.438
  Cycle:     70 Energy:      -422.003341  Gnorm:      0.005214  CPU:    2.455
  Cycle:     71 Energy:      -422.003453  Gnorm:      0.005768  CPU:    2.481
  Cycle:     72 Energy:      -422.003609  Gnorm:      0.013880  CPU:    2.508
  Cycle:     73 Energy:      -422.003815  Gnorm:      0.005252  CPU:    2.534
  Cycle:     74 Energy:      -422.003893  Gnorm:      0.004019  CPU:    2.546
  Cycle:     75 Energy:      -422.004007  Gnorm:      0.004904  CPU:    2.570
  Cycle:     76 Energy:      -422.004095  Gnorm:      0.008694  CPU:    2.581
  Cycle:     77 Energy:      -422.004199  Gnorm:      0.004878  CPU:    2.605
  Cycle:     78 Energy:      -422.004296  Gnorm:      0.003495  CPU:    2.630
  Cycle:     79 Energy:      -422.004358  Gnorm:      0.003688  CPU:    2.641
  Cycle:     80 Energy:      -422.004449  Gnorm:      0.004585  CPU:    2.667
  Cycle:     81 Energy:      -422.004464  Gnorm:      0.008530  CPU:    2.689
  Cycle:     82 Energy:      -422.004540  Gnorm:      0.002991  CPU:    2.705
  Cycle:     83 Energy:      -422.004568  Gnorm:      0.002397  CPU:    2.731
  Cycle:     84 Energy:      -422.004621  Gnorm:      0.003495  CPU:    2.759
  Cycle:     85 Energy:      -422.004670  Gnorm:      0.006081  CPU:    2.773
  Cycle:     86 Energy:      -422.004723  Gnorm:      0.003184  CPU:    2.797
  Cycle:     87 Energy:      -422.004764  Gnorm:      0.002310  CPU:    2.833
  Cycle:     88 Energy:      -422.004793  Gnorm:      0.003156  CPU:    2.860
  Cycle:     89 Energy:      -422.004824  Gnorm:      0.003703  CPU:    2.871
  Cycle:     90 Energy:      -422.004853  Gnorm:      0.002255  CPU:    2.896
  Cycle:     91 Energy:      -422.004876  Gnorm:      0.001987  CPU:    2.915
  Cycle:     92 Energy:      -422.004893  Gnorm:      0.002236  CPU:    2.933
  Cycle:     93 Energy:      -422.004914  Gnorm:      0.001705  CPU:    2.957
  Cycle:     94 Energy:      -422.004927  Gnorm:      0.002774  CPU:    2.969
  Cycle:     95 Energy:      -422.004939  Gnorm:      0.001451  CPU:    2.996
  Cycle:     96 Energy:      -422.004946  Gnorm:      0.001195  CPU:    3.014
  Cycle:     97 Energy:      -422.004955  Gnorm:      0.001212  CPU:    3.033
  Cycle:     98 Energy:      -422.004956  Gnorm:      0.002760  CPU:    3.059
  Cycle:     99 Energy:      -422.004962  Gnorm:      0.000915  CPU:    3.071
  Cycle:    100 Energy:      -422.004965  Gnorm:      0.000745  CPU:    3.110
  Cycle:    101 Energy:      -422.004968  Gnorm:      0.000837  CPU:    3.141
  Cycle:    102 Energy:      -422.004973  Gnorm:      0.000833  CPU:    3.151
  Cycle:    103 Energy:      -422.004975  Gnorm:      0.001049  CPU:    3.187
  Cycle:    104 Energy:      -422.004977  Gnorm:      0.000601  CPU:    3.211
  Cycle:    105 Energy:      -422.004979  Gnorm:      0.000455  CPU:    3.244
  Cycle:    106 Energy:      -422.004981  Gnorm:      0.000905  CPU:    3.279
  Cycle:    107 Energy:      -422.004982  Gnorm:      0.000662  CPU:    3.327
  Cycle:    108 Energy:      -422.004984  Gnorm:      0.000542  CPU:    3.374
  Cycle:    109 Energy:      -422.004985  Gnorm:      0.000664  CPU:    3.423
  Cycle:    110 Energy:      -422.004987  Gnorm:      0.000744  CPU:    3.473
  Cycle:    111 Energy:      -422.004990  Gnorm:      0.000748  CPU:    3.515
  Cycle:    112 Energy:      -422.004992  Gnorm:      0.001721  CPU:    3.560
  Cycle:    113 Energy:      -422.004995  Gnorm:      0.000632  CPU:    3.598
  Cycle:    114 Energy:      -422.004996  Gnorm:      0.000644  CPU:    3.635
  Cycle:    115 Energy:      -422.004999  Gnorm:      0.000801  CPU:    3.651
  Cycle:    116 Energy:      -422.005002  Gnorm:      0.001096  CPU:    3.673
  Cycle:    117 Energy:      -422.005005  Gnorm:      0.001140  CPU:    3.698
  Cycle:    118 Energy:      -422.005008  Gnorm:      0.000666  CPU:    3.724
  Cycle:    119 Energy:      -422.005010  Gnorm:      0.000745  CPU:    3.734
  Cycle:    120 Energy:      -422.005013  Gnorm:      0.000817  CPU:    3.761
  Cycle:    121 Energy:      -422.005016  Gnorm:      0.001422  CPU:    3.792
  Cycle:    122 Energy:      -422.005019  Gnorm:      0.000638  CPU:    3.832
  Cycle:    123 Energy:      -422.005021  Gnorm:      0.000481  CPU:    3.845
  Cycle:    124 Energy:      -422.005023  Gnorm:      0.000646  CPU:    3.877
  Cycle:    125 Energy:      -422.005024  Gnorm:      0.001170  CPU:    3.901
  Cycle:    126 Energy:      -422.005025  Gnorm:      0.000534  CPU:    3.949
  Cycle:    127 Energy:      -422.005026  Gnorm:      0.000447  CPU:    4.002
  Cycle:    128 Energy:      -422.005027  Gnorm:      0.000553  CPU:    4.036
  Cycle:    129 Energy:      -422.005028  Gnorm:      0.000592  CPU:    4.064
  Cycle:    130 Energy:      -422.005029  Gnorm:      0.000664  CPU:    4.085
  Cycle:    131 Energy:      -422.005030  Gnorm:      0.000363  CPU:    4.101
  Cycle:    132 Energy:      -422.005031  Gnorm:      0.000342  CPU:    4.127
  Cycle:    133 Energy:      -422.005031  Gnorm:      0.000374  CPU:    4.139
  Cycle:    134 Energy:      -422.005032  Gnorm:      0.000777  CPU:    4.169
  Cycle:    135 Energy:      -422.005032  Gnorm:      0.000250  CPU:    4.193


  **** Optimisation achieved ****


  Final energy =    -422.00503226 eV
  Final Gnorm  =       0.00021715

  Components of energy : 

--------------------------------------------------------------------------------
  Interatomic potentials     =           0.00000000 eV    
  Brenner potentials         =        -422.00503226 eV    
  Monopole - monopole (real) =           0.00000000 eV    
  Monopole - monopole (recip)=           0.00000000 eV    
  Monopole - monopole (total)=           0.00000000 eV    
--------------------------------------------------------------------------------
  Total lattice energy       =        -422.00503226 eV    
--------------------------------------------------------------------------------
  Total lattice energy       =          -40717.0347 kJ/(mole unit cells)
--------------------------------------------------------------------------------

  Final fractional coordinates of atoms :

--------------------------------------------------------------------------------
   No.  Atomic        x           y          z          Radius
        Label       (Frac)      (Frac)     (Frac)       (Angs) 
--------------------------------------------------------------------------------
     1  C     c     0.476040    0.519880    0.065020    0.000000
     2  C     c     0.409574    0.737790    0.307838    0.000000
     3  C     c     0.290749    0.261425    0.910591    0.000000
     4  C     c     0.104038    0.008556    0.616029    0.000000
     5  C     c     0.957751    0.855008    0.881947    0.000000
     6  C     c     0.795725    0.476085    0.582446    0.000000
     7  C     c     0.615759    0.413673    0.679765    0.000000
     8  C     c     0.788540    0.713102    0.336501    0.000000
     9  C     c     0.884536    0.244281    0.327020    0.000000
    10  C     c     0.687936    0.159183    0.142332    0.000000
    11  C     c     0.870376    0.036598    0.361081    0.000000
    12  C     c     0.950414    0.931631    0.520994    0.000000
    13  C     c     0.516780    0.057837    0.150910    0.000000
    14  C     c     0.551312    0.978933    0.497432    0.000000
    15  C     c     0.469333    0.329192    0.001195    0.000000
    16  C     c     0.950447    0.349403    0.488286    0.000000
    17  C     c     0.159889    0.418927    0.831318    0.000000
    18  C     c     0.831026    0.733842    0.814747    0.000000
    19  C     c     0.912281    0.947173    0.037348    0.000000
    20  C     c     0.143694    0.915670    0.796341    0.000000
    21  C     c     0.870862    0.647243    0.656814    0.000000
    22  C     c     0.890977    0.123169    0.728372    0.000000
    23  C     c     0.498861    0.598167    0.413640    0.000000
    24  C     c     0.651713    0.704287    0.883612    0.000000
    25  C     c     0.640847    0.586635    0.027482    0.000000
    26  C     c     0.790553    0.974033    0.720050    0.000000
    27  C     c     0.473050    0.458457    0.576980    0.000000
    28  C     c     0.359546    0.639310    0.140169    0.000000
    29  C     c     0.591449    0.952918    0.692337    0.000000
    30  C     c     0.715951    0.339167    0.234152    0.000000
    31  C     c     0.009724    0.197272    0.155809    0.000000
    32  C     c     0.971004    0.394490    0.895454    0.000000
    33  C     c     0.504209    0.787793    0.786362    0.000000
    34  C     c     0.850131    0.135407    0.035274    0.000000
    35  C     c     0.354453    0.175911    0.712115    0.000000
    36  C     c     0.114431    0.477335    0.448109    0.000000
    37  C     c     0.184727    0.165976    0.081922    0.000000
    38  C     c     0.281744    0.397918    0.517409    0.000000
    39  C     c     0.101725    0.672443    0.420959    0.000000
    40  C     c     0.933392    0.497831    0.038409    0.000000
    41  C     c     0.834925    0.244142    0.872329    0.000000
    42  C     c     0.375401    0.214001    0.168825    0.000000
    43  C     c     0.394231    0.115037    0.508831    0.000000
    44  C     c     0.979427    0.711016    0.267256    0.000000
    45  C     c     0.395647    0.276565    0.369127    0.000000
    46  C     c     0.557829    0.398214    0.339024    0.000000
    47  C     c     0.307677    0.764326    0.785931    0.000000
    48  C     c     0.926186    0.897671    0.212855    0.000000
    49  C     c     0.767330    0.484611    0.107931    0.000000
    50  C     c     0.253892    0.803563    0.415045    0.000000
    51  C     c     0.705495    0.551597    0.409915    0.000000
    52  C     c     0.955827    0.748148    0.533814    0.000000
    53  C     c     0.230515    0.605276    0.864503    0.000000
    54  C     c     0.041151    0.616808    0.113957    0.000000
    55  C     c     0.626092    0.285640    0.847296    0.000000
    56  C     c     0.438438    0.013342    0.969926    0.000000
    57  C     c     0.520029    0.911639    0.287842    0.000000
    58  C     c     0.205029    0.642989    0.047175    0.000000
    59  C     c     0.036402    0.209271    0.614392    0.000000
    60  C     c     0.256446    0.961128    0.493705    0.000000
    61  C     c     0.714049    0.894024    0.371422    0.000000
    62  C     c     0.242401    0.008564    0.954576    0.000000
    63  C     c     0.516690    0.100626    0.809730    0.000000
    64  C     c     0.199811    0.303258    0.670645    0.000000
--------------------------------------------------------------------------------

  Final internal derivatives :

--------------------------------------------------------------------------------
   No.  Atomic          a             b             c           Radius
        Label          (eV)          (eV)          (eV)        (eV/Angs)
--------------------------------------------------------------------------------
      1 C     c       0.000000      0.000000      0.000000      0.000000
      2 C     c      -0.000166     -0.000770     -0.001806      0.000000
      3 C     c      -0.001411      0.003175     -0.008809      0.000000
      4 C     c      -0.002685      0.005088     -0.000548      0.000000
      5 C     c       0.000184     -0.005318      0.004863      0.000000
      6 C     c       0.003425     -0.000156     -0.002958      0.000000
      7 C     c       0.000335      0.000412     -0.001704      0.000000
      8 C     c      -0.004371     -0.001404      0.001775      0.000000
      9 C     c       0.004770      0.003066     -0.004111      0.000000
     10 C     c       0.000520      0.004726     -0.001273      0.000000
     11 C     c      -0.005190     -0.002565      0.002265      0.000000
     12 C     c      -0.000010     -0.001166      0.001141      0.000000
     13 C     c      -0.001077     -0.002148     -0.000301      0.000000
     14 C     c       0.002413     -0.000749      0.003115      0.000000
     15 C     c       0.001573      0.005423     -0.000167      0.000000
     16 C     c       0.001342      0.000066     -0.004636      0.000000
     17 C     c      -0.003492     -0.002244     -0.001560      0.000000
     18 C     c       0.005507      0.005519     -0.004872      0.000000
     19 C     c      -0.003455      0.001167      0.002076      0.000000
     20 C     c      -0.003221     -0.000518     -0.000712      0.000000
     21 C     c      -0.000483     -0.000831     -0.001749      0.000000
     22 C     c       0.000309     -0.002405      0.000229      0.000000
     23 C     c      -0.000888     -0.001399     -0.003634      0.000000
     24 C     c      -0.002038     -0.002273     -0.002306      0.000000
     25 C     c      -0.001193     -0.000268      0.001138      0.000000
     26 C     c       0.001547     -0.001394      0.008014      0.000000
     27 C     c      -0.003018      0.000788      0.008540      0.000000
     28 C     c      -0.003807     -0.000771      0.003518      0.000000
     29 C     c      -0.000384      0.000322     -0.002602      0.000000
     30 C     c      -0.000968      0.001822     -0.002914      0.000000
     31 C     c      -0.000342     -0.001999      0.001530      0.000000
     32 C     c      -0.002941      0.002339     -0.007060      0.000000
     33 C     c       0.001873      0.006559      0.001086      0.000000
     34 C     c      -0.002774     -0.000625     -0.001438      0.000000
     35 C     c      -0.001724     -0.000910      0.003292      0.000000
     36 C     c      -0.002066     -0.002369      0.004463      0.000000
     37 C     c      -0.002362     -0.006460      0.000115      0.000000
     38 C     c       0.003769      0.001790     -0.001122      0.000000
     39 C     c      -0.000517      0.000032      0.003084      0.000000
     40 C     c       0.001894     -0.001237     -0.000803      0.000000
     41 C     c       0.003823     -0.003537      0.000521      0.000000
     42 C     c       0.004716     -0.001156     -0.003653      0.000000
     43 C     c      -0.000209     -0.001282     -0.002101      0.000000
     44 C     c      -0.001342     -0.001096      0.002416      0.000000
     45 C     c       0.001280     -0.003560      0.001337      0.000000
     46 C     c       0.005939     -0.002945     -0.009014      0.000000
     47 C     c       0.000565      0.003123      0.002172      0.000000
     48 C     c      -0.004043     -0.003687     -0.003276      0.000000
     49 C     c       0.000881      0.000954     -0.000891      0.000000
     50 C     c       0.001440     -0.002057     -0.003813      0.000000
     51 C     c       0.003556     -0.000387     -0.001728      0.000000
     52 C     c      -0.000198     -0.000149      0.002704      0.000000
     53 C     c      -0.001905     -0.000006      0.001537      0.000000
     54 C     c      -0.001581      0.000876      0.001827      0.000000
     55 C     c      -0.000100      0.003972     -0.000640      0.000000
     56 C     c       0.003319     -0.003716     -0.001718      0.000000
     57 C     c       0.000878      0.001667      0.002405      0.000000
     58 C     c      -0.002780      0.001441      0.001948      0.000000
     59 C     c      -0.002739      0.003092     -0.004563      0.000000
     60 C     c       0.000049     -0.005857     -0.000123      0.000000
     61 C     c      -0.001624     -0.001713     -0.001324      0.000000
     62 C     c       0.003744     -0.005543     -0.001214      0.000000
     63 C     c       0.006307     -0.000372     -0.000527      0.000000
     64 C     c       0.005373      0.000577      0.006303      0.000000
--------------------------------------------------------------------------------
  Maximum abs         0.006307      0.006559      0.009014      0.000000
--------------------------------------------------------------------------------


  Time to end of optimisation =       4.2161 seconds


  Peak dynamic memory used =       2.01 MB 


  Timing analysis for GULP :

--------------------------------------------------------------------------------
  Task / Subroutine                                          Time (Seconds)
--------------------------------------------------------------------------------
  Calculation of Brenner energy and derivatives                   4.1252
--------------------------------------------------------------------------------
  Total CPU time                                                  4.2163
--------------------------------------------------------------------------------


  CIF file written as opti_1.0000.cif


  Job Finished at 21:56.16 30th July       2020                               

